 --invoking executable--
/nfs/workspaces/public/cfour_mpi/bin/xjoda


   *************************************************************************
         <<<     CCCCCC     CCCCCC   |||     CCCCCC     CCCCCC   >>>
       <<<      CCC        CCC       |||    CCC        CCC         >>>
      <<<      CCC        CCC        |||   CCC        CCC            >>>
    <<<        CCC        CCC        |||   CCC        CCC              >>>
      <<<      CCC        CCC        |||   CCC        CCC            >>>
       <<<      CCC        CCC       |||    CCC        CCC         >>>
         <<<     CCCCCC     CCCCCC   |||     CCCCCC     CCCCCC   >>>
   *************************************************************************

     ****************************************************************
     * CFOUR Coupled-Cluster techniques for Computational Chemistry *
     ****************************************************************
 

   Department of Chemistry                Institut fuer Physikalische Chemie
   University of Florida                  Universitaet Mainz
   Gainesville, FL 32611, USA             D-55099 Mainz, Germany

   Department of Chemistry                Fakultaet fuer Chemie und Biowiss.
   Johns Hopkins University               Karlsruher Institut fuer Technologie
   Baltimore, MD 21218, USA               D-76131 Karlsruhe, Germany

   Department of Chemistry                Department of Physical Chemistry
   Southern Methodist University          Eotvos Lorand University
   Dallas, TX 75275, USA                  H-1053 Budapest, Hungary

 
                       Version 2.1
 
                     vincent.theory.phys.ucl.ac.uk                     
                     Thu 27 Feb 05:18:27 GMT 2025                      
                     integer*8 version is running
 
********************************************************************************
*                          Input from ZMAT file                                *
********************************************************************************
Carbon Monoxide DBOC calculation                                                
C                                                                               
O 1 r                                                                           
                                                                                
r=1.1793103448275861                                                            
                                                                                
                                                                                
*CFOUR(CALC=CCSD,BASIS=AUG-PCVQZ,SCF_CONV=10                                    
CC_CONV=14,DBOC=ON,MEMORY=500000000                                             
ZFIELD=-200)                                                                    
                                                                                
%isotopes                                                                       
13                                                                              
16                                                                              
********************************************************************************
  @GTFLGS-I, Hessian will be transformed to curvilinear coordinates.
    -------------------------------------------------------------------
                    CFOUR Control Parameters 
    -------------------------------------------------------------------
        External           Internal           Value            Units
          Name               Name
    -------------------------------------------------------------------
       ABCDTYPE             IABCDT         STANDARD    [  0]    ***   
       ANHARMONIC           IANHAR         OFF         [  0]    ***   
       ANH_ALGORIT          IANALG         STANDARD    [  0]    ***   
       ANH_DERIVAT          IANDER         SECOND      [  1]    ***   
       ANH_MODE             ANHMOD         VIBRATION   [  0]    ***   
       ANH_STEPSIZ          ICUBST             50000          x 10-6  
       ANH_SYMMETR          IANHSM         ABELIAN     [  0]    ***   
       AO_LADDERS           IAOLAD         SINGLEPASS  [  1]    ***   
       AV_SCF               IAVSCF         OFF         [  0]    ***   
       BASIS                IBASIS         AUG-PCVQZ   [ 52]    ***   
       BOTHVECTORS          BOTHVC         OFF         [  0]    ***   
       BOX_POTENT           IPIAB          OFF         [  0]    ***   
       BREIT                IBREIT         OFF         [  0]    ***   
       BRUCK_CONV           IBRTOL          10D-  4             ***   
       BRUECKNER            IBRKNR         OFF         [  0]    ***   
       BUFFERSIZE           IBUFFS              4096            ***   
       CACHE_RECS           ICHREC             10               ***   
       CALCLEVEL            ICLLVL         CCSD        [ 10]    ***   
       CCORBOPT             ICCORB         OFF         [  0]  x 0.01  
       CC_CONV              ICCCNV          10D- 14             ***   
       CC_EXPORDER          ICCEOR              5               ***   
       CC_EXTRAPOL          ICCEXT         DIIS        [  1]    ***   
       CC_GUESS             ICCGES         MP2         [  0]    ***   
       CC_MAXCYC            ICCCYC            100              cycles 
       CC_PROGRAM           ICCPRO         VCC         [  0]    ***   
       CHARGE               ICHRGE              0               ***   
       CHOLESKY             ICHOLE         OFF         [  0]    ***   
       CIS_CONV             ICISTL              5               ***   
       COMM_SIZE            IPSIZE            ***               ***   
       CONSTANT             ICONST         OLD         [  1]    ***   
       CONTINUUM            ICONTU         NONE        [  0]    ***   
       CONTRACTION          ICNTYP         GENERAL     [  1]    ***   
       COORDINATES          ICOORD         INTERNAL    [  0]    ***   
       CPHF_CONVER          ICPHFT          10D- 16             ***   
       CPHF_MAXCYC          ICPHFC             64              cycles 
       CUBIC                ICUBIC         OFF         [  0]    ***   
       CURVILINEAR          ICURVY         ON          [  1]    ***   
       DBOC                 IDBOC          ON          [  1]    ***   
       DCT                  IDCT           OFF         [  0]    ***   
       DERIV_LEV            IDRLVL         SECOND      [  2]    ***   
       DEVMEM_SIZE          IDVMEM          50000000           MByte  
       DIAG_MRCC            IEOMST          10D-  0             ***   
       DIFF_TYPE            IDIFTY         RELAXED     [  0]    ***   
       DIRECT               IDIRCT         OFF         [  0]    ***   
       DROPMO               IDRPMO      NONE         
       ECP                  IECP           OFF         [  0]    ***   
       EIGENVECTOR          IVEC                1               ***   
       EL_ANHARM            IELANH         OFF         [  0]    ***   
       EOMFOLLOW            IEOMSR         ENERGY      [  0]    ***   
       EOMIP                IEOMIP         OFF         [  0]    ***   
       EOMLEVEL             HBARFM         SAME        [  0]    ***   
       EOM_MRCC             IMRCCE         NEW         [  1]    ***   
       EOM_NONIT            EOMNON         OFF         [  0]    ***   
       EOM_NSING            IEOMSI          10D-  0             ***   
       EOM_NSTATES          IMRCCD         DAVIDSON    [  0]    ***   
       EOM_NTRIP            IEOMTR          10D-  0             ***   
       EOM_ORDER            IEXORD         ENERGY      [  0]    ***   
       EOM_PROPSTA          IEOMST              0               ***   
       ESTATE_CONV          IEXTOL          10D-  5             ***   
       ESTATE_DIAG          IEXDIG         ITERATIVE   [  0]    ***   
       ESTATE_LOCK          IESLOC         ON          [  1]    ***   
       ESTATE_MAXC          IEXMXC             40               ***   
       ESTATE_PROP          IEXPRP         OFF         [  0]    ***   
       EVAL_HESS            IRECAL              0            # of cyc.
       EXCITATION           IEXCIT              0               ***   
       EXCITE               IEXCIT         NONE        [  0]    ***   
       EXTERN_POT           IEXPOT         OFF         [  0]    ***   
       FCGRADNEW            IFCGNW         OFF         [  0]    ***   
       FC_FIELD             IFINFC              0             x 10-6  
       FD_CALTYPE           IFDCAL         GRADONLY    [  0]    ***   
       FD_PROJECT           IFDPRJ         OFF         [  1]    ***   
       FD_STEPSIZE          IDISFD              0            10-4 bohr
       FD_USEGROUP          IFDGRP         FULL        [  0]    ***   
       FILE_RECSIZ          IFLREC              4096           words  
       FINITE_PERT          IFIPER              0             x 10-6  
       FIXGEOM              IFIXGM         OFF         [  0]    ***   
       FOCK                 IFOCK          AO          [  1]    ***   
       FREQ_ALGORI          IVIALG         STANDARD    [  0]    ***   
       FROZEN_CORE          IFROCO         OFF         [  0]    ***   
       GAMMA_ABCD           IGABCD         STORE       [  0]    ***   
       GAMMA_ABCI           IGABCI         STORE       [  0]    ***   
       GENBAS_1             IGNBS1              0               ***   
       GENBAS_2             IGNBS2              0               ***   
       GENBAS_3             IGNBS3              0               ***   
       GENBAS_4             IGNBS4              0               ***   
       GEO_CONV             ICONTL              5              H/bohr 
       GEO_MAXCYC           IOPTCY             50               ***   
       GEO_MAXSTEP          IMXSTP            300            millibohr
       GEO_METHOD           INR            SINGLE_POINT[  5]    ***   
       GIAO                 IGIAO          OFF         [  1]    ***   
       GIMIC                IGIMIC         OFF         [  0]    ***   
       GRID                 IGRID          OFF         [  0]    ***   
       GRID_ALGO            IGALGO         SERIAL      [  0]    ***   
       GUESS                IGUESS         MOREAD      [  0]    ***   
       HBAR                 IHBAR          OFF         [  0]    ***   
       HESS_TYPE            IHESTP         SCF         [  0]    ***   
       HF2_FILE             IHF2Fl         USE         [  1]    ***   
       HFSTABILITY          ISTABL         OFF         [  0]    ***   
       INCORE               INCORE         OFF         [  0]    ***   
       INPUT_MRCC           IMRCC          ON          [  1]    ***   
       INTEGRALS            INTTYP         VMOL        [  1]    ***   
       JODA_PRINT           IJPRNT              0               ***   
       KEYWORD_OUT          IDMPKW         NO          [  0]    ***   
       LINDEP_TOL           ILINDP              8               ***   
       LINEQ_CONV           IZTACN          10D-  7           cycles  
       LINEQ_EXPOR          ILMAXD              5               ***   
       LINEQ_MAXCY          ILMAXC            100               ***   
       LINEQ_TYPE           ILTYPE         DIIS        [  1]    ***   
       LOCK_ORBOCC          ILOCOC         OFF         [  0]    ***   
       MEMORY_SIZE          IMEMSZ         500000000           words  
       MEM_UNIT             IMEMU          INTEGERWORDS[  0]    ***   
       MRCC                 IMRCCC         OFF         [  0]    ***   
       MULTIPLICTY          IMULTP              1               ***   
       NACOUPLING           IVCOUP         OFF         [  0]    ***   
       NEGEVAL              IDIE           ABORT       [  0]    ***   
       NEWNORM              INEWNO         OFF         [  0]    ***   
       NON-HF               INONHF         OFF         [  0]    ***   
       NTOP_TAMP            ITOPT2             15               ***   
       NUC_MODEL            INUCMO         POINT       [  0]    ***   
       OCCUPATION           IOCCU   ESTIMATED BY SCF 
       OPEN-SHELL           IOPEN          SPIN-ORBITAL[  0]    ***   
       OPTVIB               IOPTVB         OFF         [  0]    ***   
       ORBITALS             IORBTP         STANDARD    [  0]    ***   
       PARALLEL             IPARAL         ON          [  1]    ***   
       PARA_INT             IPINTS         ON          [  1]    ***   
       PARA_PRINT           IPPRIN              0               ***   
       PERT_ORB             IPTORB         STANDARD    [  0]    ***   
       POINTS               IGRDFD              0               ***   
       PRINT                IPRNT               0               ***   
       PROPS                IPROPS         OFF         [  0]    ***   
       PROP_INTEGR          IINTYP         INTERNAL    [  0]    ***   
       PSI                  IPSI           OFF         [  0]    ***   
       QC_ALG               IQCALG         FLM         [  0]    ***   
       QC_LINALG            IQCLIN         TRIDIAG     [  2]    ***   
       QC_MAXCYC            IQCMAX          10D-100           cycles  
       QC_MAXSCFCY          IQCMSC          10D- 15           cycles  
       QC_RTRUST            IQCRTR          10D-  0           x 10-3  
       QC_SKIPSCF           IQCSKI         OFF         [  0]    ***   
       QC_START             IQCSTA          10D-  1             ***   
       QRHFGUESS            IQGUES         OFF         [  0]    ***   
       QUARTIC              IQUART         OFF         [  0]    ***   
       RAMAN_INT            IRAMIN         OFF         [  0]    ***   
       RAMAN_ORB            IRAMRE         UNRELAXED   [  0]    ***   
       RDO                  IRDOFM         ON          [  1]    ***   
       REDUCE_REPR          REDREP         Ir          [  0]    ***   
       REFERENCE            IREFNC         RHF         [  0]    ***   
       RELATIVIST           IRELAT         OFF         [  0]    ***   
       RELAX_DENS           IRDENS         ON          [  1]    ***   
       RESET_FLAGS          IRESET         OFF         [  0]    ***   
       RESTART_CC           ICCRES         OFF         [  0]    ***   
       ROT_EVEC             ROTVEC              0               ***   
       SAVE_INTS            ISVINT         OFF         [  0]    ***   
       SCALE_ON             ISTCRT              0               ***   
       SCF_CONV             ISCFCV          10D- 10             ***   
       SCF_DAMPING          IDAMP               0             x 10-3  
       SCF_EXPORDE          IRPPOR              6               ***   
       SCF_EXPSTAR          IRPPLS              8               ***   
       SCF_EXTRAPO          IRPP           ON          [  1]    ***   
       SCF_MAXCYC           ISCFCY            150              cycles 
       SCF_NOSTOP           ISCFST         OFF         [  0]    ***   
       SCF_PRINT            ISCFPR              0               ***   
       SCF_PROG             ISCFPR         SCF         [  0]    ***   
       SD_FIELD             IFINSD              0             x 10-6  
       SOPERT               IPERSO         OFF         [  0]    ***   
       SPHERICAL            IDFGHI         ON          [  1]    ***   
       SPINORBIT            ISOCAL         OFF         [  0]    ***   
       SPINROTATIO          ISRCON         OFF         [  0]    ***   
       SPIN_FLIP            ISPFLP         OFF         [  0]    ***   
       SPIN_ORBIT           ISPORB         OFF         [  0]    ***   
       SPIN_SCAL            ISCSMP         OFF         [  0]    ***   
       STEEPSCALE           ISTPSC              1000          x 10-3  
       SUBGROUP             ISUBGP         DEFAULT     [  0]    ***   
       SUBGRPAXIS           ISBXYZ         X           [  0]    ***   
       SYMMETRY             ISYM           ON          [  0]    ***   
       SYM_CHECK            ISYMCK         OVERRIDE    [  1]    ***   
       T3_EXTRAPOL          IT3EXT         OFF         [  0]    ***   
       T4_EXTRAPOL          IT4EXP         OFF         [  0]    ***   
       TAMP_SUM             IEVERY              5               ***   
       TESTSUITE            ITESTS         OFF         [  0]    ***   
       THERMOCH             ITHERM         OFF         [  0]    ***   
       TOL_CHOLESK          ITOLCH          10D-  4             ***   
       TRANGRAD             IRESRM         OFF         [  0]    ***   
       TRANS_INV            ITRAIN         IGNORE      [  1]    ***   
       TREAT_PERT           ITREAT         SIMULTANEOUS[  0]    ***   
       TRIP_ALGORI          ITRALG         NORMAL      [  0]    ***   
       UIJ_THRESHO          IUIJTH              1               ***   
       UNITS                IUNITS         ANGSTROM    [  0]    ***   
       UNOS                 IUNOS          OFF         [  0]    ***   
       UPDATE_HESS          IHUPDT         ON          [  1]    ***   
       VIBPHASE             ISETPH         STANDARD    [  0]    ***   
       VIBRATION            IVIB           ANALYTIC    [  1]    ***   
       VIB_ALGORIT          IGEALG         STANDARD    [  0]    ***   
       VNATORB              IVNORB         OFF         [  0]    ***   
       VTRAN                IVTRAN         FULL/PARTIAL[  0]    ***   
       XFIELD               IXEFLD              0             x 10-6  
       XFORM_TOL            IXFTOL          10D- 11             ***   
       YFIELD               IYEFLD              0             x 10-6  
       ZFIELD               IZEFLD            ***             x 10-6  
       ZSCALE_EXP           IZEXPS         OFF         [  0]    ***   
    -------------------------------------------------------------------
   2 entries found in Z-matrix 
   Job Title : Carbon Monoxide DBOC calculation                                                
   There are  1 unique internal coordinates.
   Of these,  0 will be optimized.
   User supplied Z-matrix: 
--------------------------------------------------------------------------------
       SYMBOL    BOND      LENGTH    ANGLE     ANGLE     DIHED     ANGLE
                  TO      (ANGST)    WRT      (DEG)      WRT      (DEG)
--------------------------------------------------------------------------------
        C    
        O          1         r    
                  *Initial values for internal coordinates* 
                      Name             Value
                        r               1.1793103448
--------------------------------------------------------------------------------
  read isotopes from ZMAT file 
   Rotational constants (in cm-1): 
          1.6899547651             1.6899547651
   Rotational constants (in MHz): 
      50663.5763917153         50663.5763917153
********************************************************************************
   The full molecular point group is CXv .
   The largest Abelian subgroup of the full molecular point group is C2v .
   The computational point group is C2v .
********************************************************************************
--------------------------------------------------------------------------------
   Analysis of internal coordinates specified by Z-matrix 
--------------------------------------------------------------------------------
   *The nuclear repulsion energy is   21.538436350877191 a.u.
   *There is   1 degree of freedom within the tot. symm. molecular subspace.
   *Z-matrix requests optimization of   0 coordinates.
   *The optimization is constrained.
   *The following   1 parameters can have non-zero 
    derivatives within the totally symmetric subspace:
             r    [ 1]
   *The following   0 parameters are to be optimized:

   *The following coordinates must be varied in an  unconstrained optimization.
             r    [ 1]
--------------------------------------------------------------------------------


 ----------------------------------------------------------------
         Coordinates used in calculation (QCOMP) 
 ----------------------------------------------------------------
 Z-matrix   Atomic            Coordinates (in bohr)
  Symbol    Number           X              Y              Z
 ----------------------------------------------------------------
     C         6        -0.00000000     0.00000000     1.22924064
     O         8         0.00000000     0.00000000    -0.99933339
 ----------------------------------------------------------------
 
   Interatomic distance matrix (Angstroms) 
 
                 C             O    
                [ 1]        [ 2]
  C    [ 1]     0.00000
  O    [ 2]     1.17931     0.00000
 rotcon2
   Rotational constants (in cm-1): 
          1.6899547651             0.0000000000
   Rotational constants (in MHz): 
      50663.5763917153             0.0000000000
  ECPDATA file not present.   Using default ECPDATA. 
  @GTFLGS-I, Hessian will be transformed to curvilinear coordinates.
  There are  218 basis functions.
 @CHECKOUT-I, Total execution time (CPU/WALL):        0.12/       0.15 seconds.
--executable xjoda finished with status     0 in        0.17 seconds (walltime).
 --invoking executable--
/nfs/workspaces/public/cfour_mpi/bin/xvmol
 SERIAL VERSION OF MOLECULE STARTED
********************************************************************************
                    INPUT FROM MOL FILE
********************************************************************************
INTGRL        1    0    1    0    0    0    0    0    0                         
         *** CFOUR Program System (Release V0.1) ***                            
Carbon Monoxide DBOC calculation                                                
    2    2 X  Y       0.10E-08              0    0                              
   9999.00      3.00                                                            
          6.00000000    1    5    1    1    1    1    1                         
C #1  -0.000000000000000   0.000000000000000   1.229240644378527                
   16    9                                                                      
   33980.0000000000       9.100000000000000E-005 -1.900000000000000E-005        
  0.000000000000000E+000  0.000000000000000E+000  0.000000000000000E+000        
  0.000000000000000E+000  0.000000000000000E+000  0.000000000000000E+000        
  0.000000000000000E+000                                                        
   5089.00000000000       7.040000000000000E-004 -1.510000000000000E-004        
  0.000000000000000E+000  0.000000000000000E+000  0.000000000000000E+000        
  0.000000000000000E+000  0.000000000000000E+000  0.000000000000000E+000        
  0.000000000000000E+000                                                        
   1157.00000000000       3.693000000000000E-003 -7.850000000000000E-004        
  0.000000000000000E+000  0.000000000000000E+000  0.000000000000000E+000        
  0.000000000000000E+000  0.000000000000000E+000  0.000000000000000E+000        
  0.000000000000000E+000                                                        
   326.600000000000       1.536000000000000E-002 -3.324000000000000E-003        
  0.000000000000000E+000  0.000000000000000E+000  0.000000000000000E+000        
  0.000000000000000E+000  0.000000000000000E+000  0.000000000000000E+000        
  0.000000000000000E+000                                                        
   106.100000000000       5.292900000000000E-002 -1.151200000000000E-002        
  0.000000000000000E+000  0.000000000000000E+000  0.000000000000000E+000        
  0.000000000000000E+000  0.000000000000000E+000  0.000000000000000E+000        
  0.000000000000000E+000                                                        
   38.1100000000000       0.147043000000000      -3.416000000000000E-002        
  0.000000000000000E+000  0.000000000000000E+000  0.000000000000000E+000        
  0.000000000000000E+000  0.000000000000000E+000  0.000000000000000E+000        
  0.000000000000000E+000                                                        
   14.7500000000000       0.305631000000000      -7.717300000000001E-002        
  0.000000000000000E+000  0.000000000000000E+000  0.000000000000000E+000        
  0.000000000000000E+000  0.000000000000000E+000  0.000000000000000E+000        
  0.000000000000000E+000                                                        
   6.03500000000000       0.399345000000000      -0.141493000000000             
  0.000000000000000E+000  0.000000000000000E+000  0.000000000000000E+000        
  0.000000000000000E+000  0.000000000000000E+000  0.000000000000000E+000        
  0.000000000000000E+000                                                        
   2.53000000000000       0.217051000000000      -0.118019000000000             
  0.000000000000000E+000  0.000000000000000E+000  0.000000000000000E+000        
  0.000000000000000E+000  0.000000000000000E+000  0.000000000000000E+000        
  0.000000000000000E+000                                                        
  0.735500000000000       1.589400000000000E-002  0.273806000000000             
   1.00000000000000       0.000000000000000E+000  0.000000000000000E+000        
  0.000000000000000E+000  0.000000000000000E+000  0.000000000000000E+000        
  0.000000000000000E+000                                                        
  0.290500000000000      -3.084000000000000E-003  0.586510000000000             
  0.000000000000000E+000   1.00000000000000       0.000000000000000E+000        
  0.000000000000000E+000  0.000000000000000E+000  0.000000000000000E+000        
  0.000000000000000E+000                                                        
  0.111100000000000       9.779999999999999E-004  0.285430000000000             
  0.000000000000000E+000  0.000000000000000E+000   1.00000000000000             
  0.000000000000000E+000  0.000000000000000E+000  0.000000000000000E+000        
  0.000000000000000E+000                                                        
   7.21600000000000       0.000000000000000E+000  0.000000000000000E+000        
  0.000000000000000E+000  0.000000000000000E+000  0.000000000000000E+000        
   1.00000000000000       0.000000000000000E+000  0.000000000000000E+000        
  0.000000000000000E+000                                                        
   19.5700000000000       0.000000000000000E+000  0.000000000000000E+000        
  0.000000000000000E+000  0.000000000000000E+000  0.000000000000000E+000        
  0.000000000000000E+000   1.00000000000000       0.000000000000000E+000        
  0.000000000000000E+000                                                        
   53.0730000000000       0.000000000000000E+000  0.000000000000000E+000        
  0.000000000000000E+000  0.000000000000000E+000  0.000000000000000E+000        
  0.000000000000000E+000  0.000000000000000E+000   1.00000000000000             
  0.000000000000000E+000                                                        
  4.145000000000000E-002  0.000000000000000E+000  0.000000000000000E+000        
  0.000000000000000E+000  0.000000000000000E+000  0.000000000000000E+000        
  0.000000000000000E+000  0.000000000000000E+000  0.000000000000000E+000        
   1.00000000000000                                                             
   10    8                                                                      
   34.5100000000000       5.378000000000000E-003  0.000000000000000E+000        
  0.000000000000000E+000  0.000000000000000E+000  0.000000000000000E+000        
  0.000000000000000E+000  0.000000000000000E+000  0.000000000000000E+000        
   7.91500000000000       3.613200000000000E-002  0.000000000000000E+000        
  0.000000000000000E+000  0.000000000000000E+000  0.000000000000000E+000        
  0.000000000000000E+000  0.000000000000000E+000  0.000000000000000E+000        
   2.36800000000000       0.142493000000000       0.000000000000000E+000        
  0.000000000000000E+000  0.000000000000000E+000  0.000000000000000E+000        
  0.000000000000000E+000  0.000000000000000E+000  0.000000000000000E+000        
  0.813200000000000       0.342150000000000        1.00000000000000             
  0.000000000000000E+000  0.000000000000000E+000  0.000000000000000E+000        
  0.000000000000000E+000  0.000000000000000E+000  0.000000000000000E+000        
  0.289000000000000       0.463864000000000       0.000000000000000E+000        
   1.00000000000000       0.000000000000000E+000  0.000000000000000E+000        
  0.000000000000000E+000  0.000000000000000E+000  0.000000000000000E+000        
  0.100700000000000       0.250028000000000       0.000000000000000E+000        
  0.000000000000000E+000   1.00000000000000       0.000000000000000E+000        
  0.000000000000000E+000  0.000000000000000E+000  0.000000000000000E+000        
   8.18200000000000       0.000000000000000E+000  0.000000000000000E+000        
  0.000000000000000E+000  0.000000000000000E+000   1.00000000000000             
  0.000000000000000E+000  0.000000000000000E+000  0.000000000000000E+000        
   24.1860000000000       0.000000000000000E+000  0.000000000000000E+000        
  0.000000000000000E+000  0.000000000000000E+000  0.000000000000000E+000        
   1.00000000000000       0.000000000000000E+000  0.000000000000000E+000        
   71.4940000000000       0.000000000000000E+000  0.000000000000000E+000        
  0.000000000000000E+000  0.000000000000000E+000  0.000000000000000E+000        
  0.000000000000000E+000   1.00000000000000       0.000000000000000E+000        
  3.218000000000000E-002  0.000000000000000E+000  0.000000000000000E+000        
  0.000000000000000E+000  0.000000000000000E+000  0.000000000000000E+000        
  0.000000000000000E+000  0.000000000000000E+000   1.00000000000000             
    6    6                                                                      
   1.84800000000000        1.00000000000000       0.000000000000000E+000        
  0.000000000000000E+000  0.000000000000000E+000  0.000000000000000E+000        
  0.000000000000000E+000                                                        
  0.649000000000000       0.000000000000000E+000   1.00000000000000             
  0.000000000000000E+000  0.000000000000000E+000  0.000000000000000E+000        
  0.000000000000000E+000                                                        
  0.228000000000000       0.000000000000000E+000  0.000000000000000E+000        
   1.00000000000000       0.000000000000000E+000  0.000000000000000E+000        
  0.000000000000000E+000                                                        
   8.65600000000000       0.000000000000000E+000  0.000000000000000E+000        
  0.000000000000000E+000   1.00000000000000       0.000000000000000E+000        
  0.000000000000000E+000                                                        
   33.2130000000000       0.000000000000000E+000  0.000000000000000E+000        
  0.000000000000000E+000  0.000000000000000E+000   1.00000000000000             
  0.000000000000000E+000                                                        
  7.660000000000000E-002  0.000000000000000E+000  0.000000000000000E+000        
  0.000000000000000E+000  0.000000000000000E+000  0.000000000000000E+000        
   1.00000000000000                                                             
    4    4                                                                      
   1.41900000000000        1.00000000000000       0.000000000000000E+000        
  0.000000000000000E+000  0.000000000000000E+000                                
  0.485000000000000       0.000000000000000E+000   1.00000000000000             
  0.000000000000000E+000  0.000000000000000E+000                                
   24.6940000000000       0.000000000000000E+000  0.000000000000000E+000        
   1.00000000000000       0.000000000000000E+000                                
  0.187000000000000       0.000000000000000E+000  0.000000000000000E+000        
  0.000000000000000E+000   1.00000000000000                                     
    2    2                                                                      
   1.01100000000000        1.00000000000000       0.000000000000000E+000        
  0.424000000000000       0.000000000000000E+000   1.00000000000000             
          8.00000000    1    5    1    1    1    1    1                         
O #2   0.000000000000000   0.000000000000000  -0.999333390339881                
   16    9                                                                      
   61420.0000000000       9.000000000000001E-005 -2.000000000000000E-005        
  0.000000000000000E+000  0.000000000000000E+000  0.000000000000000E+000        
  0.000000000000000E+000  0.000000000000000E+000  0.000000000000000E+000        
  0.000000000000000E+000                                                        
   9199.00000000000       6.980000000000001E-004 -1.590000000000000E-004        
  0.000000000000000E+000  0.000000000000000E+000  0.000000000000000E+000        
  0.000000000000000E+000  0.000000000000000E+000  0.000000000000000E+000        
  0.000000000000000E+000                                                        
   2091.00000000000       3.664000000000000E-003 -8.290000000000000E-004        
  0.000000000000000E+000  0.000000000000000E+000  0.000000000000000E+000        
  0.000000000000000E+000  0.000000000000000E+000  0.000000000000000E+000        
  0.000000000000000E+000                                                        
   590.900000000000       1.521800000000000E-002 -3.508000000000000E-003        
  0.000000000000000E+000  0.000000000000000E+000  0.000000000000000E+000        
  0.000000000000000E+000  0.000000000000000E+000  0.000000000000000E+000        
  0.000000000000000E+000                                                        
   192.300000000000       5.242300000000000E-002 -1.215600000000000E-002        
  0.000000000000000E+000  0.000000000000000E+000  0.000000000000000E+000        
  0.000000000000000E+000  0.000000000000000E+000  0.000000000000000E+000        
  0.000000000000000E+000                                                        
   69.3200000000000       0.145921000000000      -3.626100000000000E-002        
  0.000000000000000E+000  0.000000000000000E+000  0.000000000000000E+000        
  0.000000000000000E+000  0.000000000000000E+000  0.000000000000000E+000        
  0.000000000000000E+000                                                        
   26.9700000000000       0.305258000000000      -8.299200000000000E-002        
  0.000000000000000E+000  0.000000000000000E+000  0.000000000000000E+000        
  0.000000000000000E+000  0.000000000000000E+000  0.000000000000000E+000        
  0.000000000000000E+000                                                        
   11.1000000000000       0.398508000000000      -0.152090000000000             
  0.000000000000000E+000  0.000000000000000E+000  0.000000000000000E+000        
  0.000000000000000E+000  0.000000000000000E+000  0.000000000000000E+000        
  0.000000000000000E+000                                                        
   4.68200000000000       0.216980000000000      -0.115331000000000             
  0.000000000000000E+000  0.000000000000000E+000  0.000000000000000E+000        
  0.000000000000000E+000  0.000000000000000E+000  0.000000000000000E+000        
  0.000000000000000E+000                                                        
   1.42800000000000       1.759400000000000E-002  0.288979000000000             
   1.00000000000000       0.000000000000000E+000  0.000000000000000E+000        
  0.000000000000000E+000  0.000000000000000E+000  0.000000000000000E+000        
  0.000000000000000E+000                                                        
  0.554700000000000      -2.502000000000000E-003  0.586128000000000             
  0.000000000000000E+000   1.00000000000000       0.000000000000000E+000        
  0.000000000000000E+000  0.000000000000000E+000  0.000000000000000E+000        
  0.000000000000000E+000                                                        
  0.206700000000000       9.540000000000000E-004  0.277624000000000             
  0.000000000000000E+000  0.000000000000000E+000   1.00000000000000             
  0.000000000000000E+000  0.000000000000000E+000  0.000000000000000E+000        
  0.000000000000000E+000                                                        
   12.9740000000000       0.000000000000000E+000  0.000000000000000E+000        
  0.000000000000000E+000  0.000000000000000E+000  0.000000000000000E+000        
   1.00000000000000       0.000000000000000E+000  0.000000000000000E+000        
  0.000000000000000E+000                                                        
   34.9000000000000       0.000000000000000E+000  0.000000000000000E+000        
  0.000000000000000E+000  0.000000000000000E+000  0.000000000000000E+000        
  0.000000000000000E+000   1.00000000000000       0.000000000000000E+000        
  0.000000000000000E+000                                                        
   93.8810000000000       0.000000000000000E+000  0.000000000000000E+000        
  0.000000000000000E+000  0.000000000000000E+000  0.000000000000000E+000        
  0.000000000000000E+000  0.000000000000000E+000   1.00000000000000             
  0.000000000000000E+000                                                        
  6.959000000000000E-002  0.000000000000000E+000  0.000000000000000E+000        
  0.000000000000000E+000  0.000000000000000E+000  0.000000000000000E+000        
  0.000000000000000E+000  0.000000000000000E+000  0.000000000000000E+000        
   1.00000000000000                                                             
   10    8                                                                      
   63.4200000000000       6.044000000000000E-003  0.000000000000000E+000        
  0.000000000000000E+000  0.000000000000000E+000  0.000000000000000E+000        
  0.000000000000000E+000  0.000000000000000E+000  0.000000000000000E+000        
   14.6600000000000       4.179900000000000E-002  0.000000000000000E+000        
  0.000000000000000E+000  0.000000000000000E+000  0.000000000000000E+000        
  0.000000000000000E+000  0.000000000000000E+000  0.000000000000000E+000        
   4.45900000000000       0.161143000000000       0.000000000000000E+000        
  0.000000000000000E+000  0.000000000000000E+000  0.000000000000000E+000        
  0.000000000000000E+000  0.000000000000000E+000  0.000000000000000E+000        
   1.53100000000000       0.356731000000000        1.00000000000000             
  0.000000000000000E+000  0.000000000000000E+000  0.000000000000000E+000        
  0.000000000000000E+000  0.000000000000000E+000  0.000000000000000E+000        
  0.530200000000000       0.448309000000000       0.000000000000000E+000        
   1.00000000000000       0.000000000000000E+000  0.000000000000000E+000        
  0.000000000000000E+000  0.000000000000000E+000  0.000000000000000E+000        
  0.175000000000000       0.244940000000000       0.000000000000000E+000        
  0.000000000000000E+000   1.00000000000000       0.000000000000000E+000        
  0.000000000000000E+000  0.000000000000000E+000  0.000000000000000E+000        
   14.4750000000000       0.000000000000000E+000  0.000000000000000E+000        
  0.000000000000000E+000  0.000000000000000E+000   1.00000000000000             
  0.000000000000000E+000  0.000000000000000E+000  0.000000000000000E+000        
   42.7300000000000       0.000000000000000E+000  0.000000000000000E+000        
  0.000000000000000E+000  0.000000000000000E+000  0.000000000000000E+000        
   1.00000000000000       0.000000000000000E+000  0.000000000000000E+000        
   126.140000000000       0.000000000000000E+000  0.000000000000000E+000        
  0.000000000000000E+000  0.000000000000000E+000  0.000000000000000E+000        
  0.000000000000000E+000   1.00000000000000       0.000000000000000E+000        
  5.348000000000000E-002  0.000000000000000E+000  0.000000000000000E+000        
  0.000000000000000E+000  0.000000000000000E+000  0.000000000000000E+000        
  0.000000000000000E+000  0.000000000000000E+000   1.00000000000000             
    6    6                                                                      
   3.77500000000000        1.00000000000000       0.000000000000000E+000        
  0.000000000000000E+000  0.000000000000000E+000  0.000000000000000E+000        
  0.000000000000000E+000                                                        
   1.30000000000000       0.000000000000000E+000   1.00000000000000             
  0.000000000000000E+000  0.000000000000000E+000  0.000000000000000E+000        
  0.000000000000000E+000                                                        
  0.444000000000000       0.000000000000000E+000  0.000000000000000E+000        
   1.00000000000000       0.000000000000000E+000  0.000000000000000E+000        
  0.000000000000000E+000                                                        
   14.9270000000000       0.000000000000000E+000  0.000000000000000E+000        
  0.000000000000000E+000   1.00000000000000       0.000000000000000E+000        
  0.000000000000000E+000                                                        
   57.5440000000000       0.000000000000000E+000  0.000000000000000E+000        
  0.000000000000000E+000  0.000000000000000E+000   1.00000000000000             
  0.000000000000000E+000                                                        
  0.154000000000000       0.000000000000000E+000  0.000000000000000E+000        
  0.000000000000000E+000  0.000000000000000E+000  0.000000000000000E+000        
   1.00000000000000                                                             
    4    4                                                                      
   2.66600000000000        1.00000000000000       0.000000000000000E+000        
  0.000000000000000E+000  0.000000000000000E+000                                
  0.859000000000000       0.000000000000000E+000   1.00000000000000             
  0.000000000000000E+000  0.000000000000000E+000                                
   26.4830000000000       0.000000000000000E+000  0.000000000000000E+000        
   1.00000000000000       0.000000000000000E+000                                
  0.324000000000000       0.000000000000000E+000  0.000000000000000E+000        
  0.000000000000000E+000   1.00000000000000                                     
    2    2                                                                      
   1.84600000000000        1.00000000000000       0.000000000000000E+000        
  0.714000000000000       0.000000000000000E+000   1.00000000000000             
FINISH                                                                          
 
********************************************************************************
 ONE- AND TWO-ELECTRON INTEGRALS OVER SYMMETRY-ADAPTED AOS ARE CALCULATED.

  SPHERICAL HARMONICS ARE USED.
  
  INTEGRALS LESS THAN  0.10E-13 ARE NEGLECTED.

  NUCLEAR REPULSION ENERGY :   21.5384363509 A.U.
  @MOLECU-I, ONE ELECTRON INTEGRALS (CPU/WALL):        0.06/       0.06 SECONDS.
  @TWOEL-I,    4573756 INTEGRALS OF SYMMETRY TYPE  I I I I
  @TWOEL-I,   19644968 INTEGRALS OF SYMMETRY TYPE  I J I J
  @TWOEL-I,   10351935 INTEGRALS OF SYMMETRY TYPE  I I J J
  @TWOEL-I,   14534383 INTEGRALS OF SYMMETRY TYPE  I J K L
  @TWOEL-I, TOTAL NUMBER OF 2-E INTEGRALS   49105042.
  @MOLECU-I, TWO ELECTRON INTEGRALS (CPU/WALL):      149.22/      20.43 SECONDS.
 @CHECKOUT-I, Total execution time (CPU/WALL):      149.30/      20.51 seconds.

Running with 14 threads/proc

--executable xvmol finished with status     0 in       20.54 seconds (walltime).
 --invoking executable--
/nfs/workspaces/public/cfour_mpi/bin/xvmol2ja
 @GETMEM-I,  Allocated    3814 MB of main memory.
 @CHECKOUT-I, Total execution time (CPU/WALL):        0.16/       0.03 seconds.
--executable xvmol2ja finished with status     0 in        0.06 seconds (walltime).
 --invoking executable--
/nfs/workspaces/public/cfour_mpi/bin/xvprop
 @GETMEM-I,  Allocated    3814 MB of main memory.
   Property integrals will be calculated.
    --------------------------------------------------------------
                                   Property evaluated at 
    Property type                X             Y             Z
    --------------------------------------------------------------
    Dipole moment               ----          ----          ----  
    Quadrupole moment           ----          ----          ----  
    Octopole moment             ----          ----          ----  
    Relativisitic corr.         ----          ----          ----  
    Second moment            0.0000000     0.0000000     0.0000000
    Electron density         0.0000000     0.0000000     1.2292406
    Electron density         0.0000000     0.0000000    -0.9993334
    Field gradient           0.0000000     0.0000000     1.2292406
    Field gradient           0.0000000     0.0000000    -0.9993334
    Potential                0.0000000     0.0000000     1.2292406
    Potential                0.0000000     0.0000000    -0.9993334
    --------------------------------------------------------------
 @CHECKOUT-I, Total execution time (CPU/WALL):        1.31/       1.31 seconds.
--executable xvprop finished with status     0 in        1.33 seconds (walltime).
 --invoking executable--
/nfs/workspaces/public/cfour_mpi/bin/xvscf
  There are  218 functions in the AO basis.

  There are 4 irreducible representations.

       Irrep        # of functions
         1                 86
         2                 52
         3                 52
         4                 28


  Parameters for SCF calculation: 
        SCF reference function:  RHF  
  Maximum number of iterations:  150
     Full symmetry point group: CXv 
     Computational point group: C2v 
        Initial density matrix: MOREAD                 
     SCF convergence tolerance: 10**(-10)
  DIIS convergence acceleration:  ON
          Latest start for DIIS:   8
                     DIIS order:   6

  Memory information:    2523578 words required.
  Fock matrices are constructed from AO integral file.
 @GETMEM-I,  Allocated      19 MB of main memory.
  Initialization and symmetry analysis required      0.002 seconds.

  Adding electric field perturbation to one-electron Hamiltonian.
  Field direction     : Z
  Field strength      : -0.0002000 a.u.

  @INITGES-I, Occupancies from core Hamiltonian:

          Alpha population by irrep:   5    1    1    0
           Beta population by irrep:   5    1    1    0


 total no. of electrons in initial guess :  0.000000000000000E+000
  --------------------------------------------------------------------
  Iteration         Total Energy            Largest Density Difference
  --------------------------------------------------------------------
       0            21.538312506226212              0.0000000000D+00
   current occupation vector 
     5  1  1  0
     5  1  1  0
       1           -92.154405430306838              0.1842215906D+02
   current occupation vector 
     5  1  1  0
     5  1  1  0
       2           -97.391163964410310              0.1841761121D+02
   current occupation vector 
     5  1  1  0
     5  1  1  0
       3          -103.467662027051603              0.1171887837D+02
   current occupation vector 
     5  1  1  0
     5  1  1  0
       4          -100.161448561768793              0.7412195449D+01
   current occupation vector 
     5  1  1  0
     5  1  1  0
       5          -102.910823974433725              0.6524974448D+01
   current occupation vector 
     5  1  1  0
     5  1  1  0
       6           -99.784308999446523              0.5855208214D+01
   current occupation vector 
     5  1  1  0
     5  1  1  0
       7          -102.849192646872467              0.5783440638D+01
   current occupation vector 
     5  1  1  0
     5  1  1  0
       8           -99.635552988051217              0.5775265067D+01
   current occupation vector 
     5  1  1  0
     5  1  1  0
       9          -110.412887330245269              0.4366065731D+01
   current occupation vector 
     5  1  1  0
     5  1  1  0
      10          -112.096727419877112              0.9863663258D+00
   current occupation vector 
     5  1  1  0
     5  1  1  0
      11          -112.748462625574632              0.5590880838D+00
   current occupation vector 
     5  1  1  0
     5  1  1  0
      12          -112.776373250388900              0.1345683272D+00
   current occupation vector 
     5  1  1  0
     5  1  1  0
      13          -112.777104958567605              0.3328214988D-01
   current occupation vector 
     5  1  1  0
     5  1  1  0
      14          -112.777231440642453              0.1632993201D-01
   current occupation vector 
     5  1  1  0
     5  1  1  0
      15          -112.777243763098369              0.6966385445D-02
   current occupation vector 
     5  1  1  0
     5  1  1  0
      16          -112.777243884090097              0.5853389835D-03
   current occupation vector 
     5  1  1  0
     5  1  1  0
      17          -112.777243888133739              0.7646471771D-04
   current occupation vector 
     5  1  1  0
     5  1  1  0
      18          -112.777243888248194              0.1650745786D-04
   current occupation vector 
     5  1  1  0
     5  1  1  0
      19          -112.777243888255100              0.3282695070D-05
   current occupation vector 
     5  1  1  0
     5  1  1  0
      20          -112.777243888253395              0.6172319136D-06
   current occupation vector 
     5  1  1  0
     5  1  1  0
      21          -112.777243888253793              0.7064118845D-07
   current occupation vector 
     5  1  1  0
     5  1  1  0
      22          -112.777243888254958              0.1626987634D-07
   current occupation vector 
     5  1  1  0
     5  1  1  0
      23          -112.777243888254930              0.9689411495D-08
   current occupation vector 
     5  1  1  0
     5  1  1  0
      24          -112.777243888254674              0.2409311084D-09
   current occupation vector 
     5  1  1  0
     5  1  1  0
      25          -112.777243888253594              0.3184297270D-09
   current occupation vector 
     5  1  1  0
     5  1  1  0
      26          -112.777243888254787              0.3245002045D-09
   current occupation vector 
     5  1  1  0
     5  1  1  0
      27          -112.777243888254219              0.1442232445D-09
   current occupation vector 
     5  1  1  0
     5  1  1  0
      28          -112.777243888254731              0.1062233912D-09
   current occupation vector 
     5  1  1  0
     5  1  1  0
      29          -112.777243888254390              0.1101395919D-09
   current occupation vector 
     5  1  1  0
     5  1  1  0
      30          -112.777243888253452              0.3109290603D-09
   current occupation vector 
     5  1  1  0
     5  1  1  0
      31          -112.777243888254418              0.3132587523D-09
   current occupation vector 
     5  1  1  0
     5  1  1  0
      32          -112.777243888253707              0.2431866930D-09
   current occupation vector 
     5  1  1  0
     5  1  1  0
      33          -112.777243888254247              0.2604046145D-09
   current occupation vector 
     5  1  1  0
     5  1  1  0

  SCF has converged.

 Density matrix saved to file den.dat
 total electron number:   14.0000000000000     
     E(SCF)=      -112.777243888254276              0.4819354985D-10

  Eigenvector printing suppressed.

 @PUTMOS-I, Writing converged MOs to NEWMOS. 
 @PUTMOS-I, Symmetry   1 Full Blocks 21 Partial Blocksize   2
 @PUTMOS-I, Symmetry   2 Full Blocks 13 Partial Blocksize   0
 @PUTMOS-I, Symmetry   3 Full Blocks 13 Partial Blocksize   0
 @PUTMOS-I, Symmetry   4 Full Blocks  7 Partial Blocksize   0
 @PUTFOCK-I, Writing converged Fock matrix to NEWFOCK. 
 @PUTFOCK-I, Symmetry   1 Full Blocks 21 Partial Blocksize   2
 @PUTFOCK-I, Symmetry   2 Full Blocks 13 Partial Blocksize   0
 @PUTFOCK-I, Symmetry   3 Full Blocks 13 Partial Blocksize   0
 @PUTFOCK-I, Symmetry   4 Full Blocks  7 Partial Blocksize   0


 
  ORBITAL EIGENVALUES (ALPHA)  (1H = 27.2113834 eV)

       MO #        E(hartree)               E(eV)           FULLSYM    COMPSYM
       ----   --------------------   --------------------   -------   ---------
    1     1         -20.6666820572        -562.3690090653     SG+        A1 (1)
    2     2         -11.3832625374        -309.7543212484     SG+        A1 (1)
    3     3          -1.4871256335         -40.4667457783     SG+        A1 (1)
    4     4          -0.8004005558         -21.7800063985     SG+        A1 (1)
    5    87          -0.6189285584         -16.8419023001      PI        B1 (2)
    6   139          -0.6189285584         -16.8419023001      PI        B2 (3)
    7     5          -0.5604066085         -15.2494390843     SG+        A1 (1)
  +++++++++++++++++++++++++++++++++++++++++++++++++++++++++++++++++++++++++++++
    8   140           0.0602804524           1.6403145029      PI        B2 (3)
    9    88           0.0602804524           1.6403145029      PI        B1 (2)
   10     6           0.0613965968           1.6706863350     SG+        A1 (1)
   11     7           0.0727239772           1.9789200268     SG+        A1 (1)
   12   141           0.1283128214           3.4915693779      PI        B2 (3)
   13    89           0.1283128214           3.4915693779      PI        B1 (2)
   14     8           0.1568256635           4.2674432553     SG+        A1 (1)
   15   142           0.1665039127           4.5308018062      PI        B2 (3)
   16    90           0.1665039127           4.5308018063      PI        B1 (2)
   17   191           0.2274408065           6.1889789872      DE        A2 (4)
   18     9           0.2274408065           6.1889789872      DE        A1 (1)
   19    10           0.2283750409           6.2144007965     SG+        A1 (1)
   20    11           0.3004977928           8.1769606500     SG+        A1 (1)
   21   143           0.3150269464           8.5723190195      PI        B2 (3)
   22    91           0.3150269464           8.5723190195      PI        B1 (2)
   23    12           0.3891570136          10.5895007011     SG+        A1 (1)
   24   144           0.3952605952          10.7555875975      PI        B2 (3)
   25    92           0.3952605952          10.7555875976      PI        B1 (2)
   26    13           0.5089437066          13.8490623297     SG+        A1 (1)
   27    14           0.5378778416          14.6364001694      DE        A1 (1)
   28   192           0.5378778416          14.6364001694      DE        A2 (4)
   29   145           0.6248025472          17.0017416609      PI        B2 (3)
   30    93           0.6248025472          17.0017416609      PI        B1 (2)
   31    15           0.6278523752          17.0847317012     SG+        A1 (1)
   32    94           0.7474323102          20.3386671597      PH        B1 (2)
   33   146           0.7474323102          20.3386671597      PH        B2 (3)
   34    16           0.7661635295          20.8483695475      DE        A1 (1)
   35   193           0.7661635295          20.8483695475      DE        A2 (4)
   36    17           0.7785605348          21.1857092131     SG+        A1 (1)
   37   147           0.8167908598          22.2260092450      PI        B2 (3)
   38    95           0.8167908599          22.2260092450      PI        B1 (2)
   39    18           0.8675784234          23.6080091099     SG+        A1 (1)
   40    19           0.8846528366          24.0726275121     SG+        A1 (1)
   41   148           0.8850454639          24.0833114452      PI        B2 (3)
   42    96           0.8850454639          24.0833114453      PI        B1 (2)
   43    20           0.8877659712          24.1573402111      DE        A1 (1)
   44   194           0.8877659712          24.1573402112      DE        A2 (4)
   45   149           1.0653317194          28.9891498638      PI        B2 (3)
   46    97           1.0653317194          28.9891498639      PI        B1 (2)
   47    21           1.1625156407          31.6336588081     SG+        A1 (1)
   48    98           1.4438914485          39.2902837933      PH        B1 (2)
   49   150           1.4438914485          39.2902837933      PH        B2 (3)
   50    22           1.4552054626          39.5981537697     SG+        A1 (1)
   51    23           1.5260352060          41.5255290710      DE        A1 (1)
   52   195           1.5260352060          41.5255290710      DE        A2 (4)
   53    99           1.5613932971          42.4876716448      PI        B1 (2)
   54   151           1.5613932971          42.4876716448      PI        B2 (3)
   55    24           1.6673565817          45.3710792089     SG+        A1 (1)
   56   196           1.7620266996          47.9471840838      DE        A2 (4)
   57    25           1.7620266996          47.9471840838      DE        A1 (1)
   58   152           1.7662456497          48.0619875531      PI        B2 (3)
   59   100           1.7662456497          48.0619875531      PI        B1 (2)
   60    26           1.7885111016          48.6678613003     SG+        A1 (1)
   61   153           1.9922089817          54.2107624129      PI        B2 (3)
   62   101           1.9922089817          54.2107624130      PI        B1 (2)
   63   197           2.1019095820          57.1958675075      PI        A2 (4)
   64    27           2.1019095820          57.1958675075      PI        A1 (1)
   65    28           2.1045176865          57.2668376407     SG+        A1 (1)
   66    29           2.1856466194          59.4744681368      DE        A1 (1)
   67   198           2.1856466194          59.4744681368      DE        A2 (4)
   68   154           2.2472537013          61.1508820628      PH        B2 (3)
   69   102           2.2472537013          61.1508820628      PH        B1 (2)
   70    30           2.3110640201          62.8872491132     SG+        A1 (1)
   71   155           2.3140577273          62.9687120276      PI        B2 (3)
   72   103           2.3140577273          62.9687120276      PI        B1 (2)
   73   156           2.3443257419          63.7923465780      PH        B2 (3)
   74   104           2.3443257419          63.7923465780      PH        B1 (2)
   75    31           2.3559677636          64.1091420937      DE        A1 (1)
   76   199           2.3559677636          64.1091420937      DE        A2 (4)
   77    32           2.4807926777          67.5058006891     SG+        A1 (1)
   78   157           2.5860150140          70.3690460231      PI        B2 (3)
   79   105           2.5860150140          70.3690460231      PI        B1 (2)
   80   158           2.7869240398          75.8360585546      PI        B2 (3)
   81   106           2.7869240398          75.8360585546      PI        B1 (2)
   82    33           2.8711789273          78.1287506011     SG+        A1 (1)
   83   200           2.9658511402          80.7049124829      DE        A2 (4)
   84    34           2.9658511402          80.7049124830      DE        A1 (1)
   85    35           3.4814012032          94.7337429090     SG+        A1 (1)
   86   201           3.7154528103         101.1026109244      PI        A2 (4)
   87    36           3.7154528103         101.1026109244      PI        A1 (1)
   88   159           3.7310780847         101.5277962570      PI        B2 (3)
   89   107           3.7310780847         101.5277962571      PI        B1 (2)
   90    37           3.9287766911         106.9074488347     SG+        A1 (1)
   91   160           4.0865926974         111.2018406893      PH        B2 (3)
   92   108           4.0865926974         111.2018406893      PH        B1 (2)
   93    38           4.1814337324         113.7825964552      DE        A1 (1)
   94   202           4.1814337324         113.7825964552      DE        A2 (4)
   95   161           4.2063898137         114.4616859507      PI        B2 (3)
   96   109           4.2063898137         114.4616859507      PI        B1 (2)
   97   110           4.2310194163         115.1318915100      PH        B1 (2)
   98   162           4.2310194163         115.1318915100      PH        B2 (3)
   99    39           4.2565065549         115.8254318102     SG+        A1 (1)
  100   203           4.3596388323         118.6318037518      DE        A2 (4)
  101    40           4.3596388323         118.6318037519      DE        A1 (1)
  102    41           4.4603517979         121.3723428702     SG+        A1 (1)
  103   163           4.7868611017         130.2571127220      PI        B2 (3)
  104   111           4.7868611017         130.2571127221      PI        B1 (2)
  105   164           5.0505638641         137.4328296921      PI        B2 (3)
  106   112           5.0505638641         137.4328296921      PI        B1 (2)
  107    42           5.0833316029         138.3244851966     SG+        A1 (1)
  108   204           5.1165684200         139.2289049694      DE        A2 (4)
  109    43           5.1165684200         139.2289049695      DE        A1 (1)
  110    44           5.6685598522         154.2493554650     SG+        A1 (1)
  111   113           5.7567137725         156.6481455889      PI        B1 (2)
  112   165           5.7567137726         156.6481455890      PI        B2 (3)
  113   205           5.8931044965         160.3595258704      PI        A2 (4)
  114    45           5.8931044965         160.3595258704      PI        A1 (1)
  115   166           6.0889832670         165.6896581940      PH        B2 (3)
  116   114           6.0889832670         165.6896581940      PH        B1 (2)
  117    46           6.2376310224         169.7345692577     SG+        A1 (1)
  118   206           6.2875376613         171.0925979422      DE        A2 (4)
  119    47           6.2875376613         171.0925979423      DE        A1 (1)
  120   167           6.3131799199         171.7903592734      PI        B2 (3)
  121   115           6.3131799199         171.7903592734      PI        B1 (2)
  122   168           6.4339090508         175.0755659414      PH        B2 (3)
  123   116           6.4339090508         175.0755659414      PH        B1 (2)
  124   207           6.5684930763         178.7377834595      DE        A2 (4)
  125    48           6.5684930763         178.7377834597      DE        A1 (1)
  126    49           6.9265937280         188.4821975891     SG+        A1 (1)
  127    50           7.1628796723         194.9118650108      DE        A1 (1)
  128   208           7.1628796723         194.9118650108      DE        A2 (4)
  129   169           7.3746789322         200.6752158757      PI        B2 (3)
  130   117           7.3746789322         200.6752158758      PI        B1 (2)
  131    51           7.7157803376         209.9570569978     SG+        A1 (1)
  132    52           8.1559088542         221.9335628068     SG+        A1 (1)
  133   118           8.3297190042         226.6631774381      PI        B1 (2)
  134   170           8.3297190042         226.6631774381      PI        B2 (3)
  135   171          10.1195113883         275.3659042069      PI        B2 (3)
  136   119          10.1195113883         275.3659042069      PI        B1 (2)
  137    53          10.5680884040         287.5723053662     SG+        A1 (1)
  138   209          10.6046071252         288.5660302903      PI        A2 (4)
  139    54          10.6046071252         288.5660302903      PI        A1 (1)
  140   120          10.8501603516         295.2478732787      PH        B1 (2)
  141   172          10.8501603516         295.2478732787      PH        B2 (3)
  142    55          11.0757983044         301.3877941211     SG+        A1 (1)
  143   210          11.0929193179         301.8536805838      DE        A2 (4)
  144    56          11.0929193179         301.8536805838      DE        A1 (1)
  145   173          11.3394692030         308.5626440357      PI        B2 (3)
  146   121          11.3394692030         308.5626440357      PI        B1 (2)
  147    57          11.4850914174         312.5252259416     SG+        A1 (1)
  148   174          11.8551540045         322.5951408819      PH        B2 (3)
  149   122          11.8551540045         322.5951408820      PH        B1 (2)
  150    58          12.2409832118         333.0940873701      DE        A1 (1)
  151   211          12.2409832118         333.0940873705      DE        A2 (4)
  152   175          12.5838363560         342.4235957252      PI        B2 (3)
  153   123          12.5838363560         342.4235957252      PI        B1 (2)
  154   212          12.8458314534         349.5528447700      DE        A2 (4)
  155    59          12.8458314534         349.5528447701      DE        A1 (1)
  156    60          13.1469591530         357.7469460558     SG+        A1 (1)
  157   176          13.9121745674         378.5695160813      PI        B2 (3)
  158   124          13.9121745674         378.5695160813      PI        B1 (2)
  159    61          15.2716602667         415.5630026721     SG+        A1 (1)
  160    62          17.9812384343         489.2943730424     SG+        A1 (1)
  161   125          19.3103887655         525.4623923023      PI        B1 (2)
  162   177          19.3103887656         525.4623923030      PI        B2 (3)
  163    63          20.5658321289         559.6247429989     SG+        A1 (1)
  164   213          26.4882822307         720.7828033859      DE        A2 (4)
  165    64          26.4882822307         720.7828033860      DE        A1 (1)
  166   178          26.9343808984         732.9217652686      PI        B2 (3)
  167   126          26.9343808984         732.9217652686      PI        B1 (2)
  168    65          28.0104446232         762.2029478471     SG+        A1 (1)
  169   127          33.7766051355         919.1081522926      PI        B1 (2)
  170   179          33.7766051355         919.1081522927      PI        B2 (3)
  171    66          34.8806811508         949.1515880486     SG+        A1 (1)
  172    67          36.6187520068         996.4469004853     SG+        A1 (1)
  173   214          47.1104018676        1281.9392073471      DE        A2 (4)
  174    68          47.1104018676        1281.9392073471      DE        A1 (1)
  175   180          47.5901851968        1294.9947754667      PI        B2 (3)
  176   128          47.5901851968        1294.9947754668      PI        B1 (2)
  177    69          48.4419680340        1318.1729648226     SG+        A1 (1)
  178    70          64.1571367470        1745.8044458699     SG+        A1 (1)
  179   129          66.7707706930        1816.9250412420      PI        B1 (2)
  180   181          66.7707706931        1816.9250412424      PI        B2 (3)
  181    71          67.7476719086        1843.5078747614     SG+        A1 (1)
  182   130          98.6522390620        2684.4639003832      PH        B1 (2)
  183   182          98.6522390620        2684.4639003833      PH        B2 (3)
  184   215          98.6713952061        2684.9851655664      DE        A2 (4)
  185    72          98.6713952061        2684.9851655665      DE        A1 (1)
  186   183          98.7303098193        2686.5883136928      PI        B2 (3)
  187   131          98.7303098193        2686.5883136928      PI        B1 (2)
  188    73          98.7445339235        2686.9753712475     SG+        A1 (1)
  189   184         103.2827408320        2810.4662593834      PH        B2 (3)
  190   132         103.2827408320        2810.4662593834      PH        B1 (2)
  191   216         103.3265338797        2811.6579287934      DE        A2 (4)
  192    74         103.3265338799        2811.6579287986      DE        A1 (1)
  193   185         103.3561650636        2812.4642342988      PI        B2 (3)
  194   133         103.3561650636        2812.4642342988      PI        B1 (2)
  195    75         103.4038881536        2813.7628455970     SG+        A1 (1)
  196   217         115.1519000638        3133.4425018747      DE        A2 (4)
  197    76         115.1519000638        3133.4425018748      DE        A1 (1)
  198   186         115.3702865129        3139.3850992707      PI        B2 (3)
  199   134         115.3702865129        3139.3850992708      PI        B1 (2)
  200    77         115.9168833284        3154.2587547833     SG+        A1 (1)
  201   187         117.0285561604        3184.5089104298      PI        B2 (3)
  202   135         117.0285561604        3184.5089104300      PI        B1 (2)
  203    78         117.9118101747        3208.5434740527     SG+        A1 (1)
  204    79         122.7952786017        3341.4294057419     SG+        A1 (1)
  205   218         198.5707054474        5403.3835979364      DE        A2 (4)
  206    80         198.5707054474        5403.3835979366      DE        A1 (1)
  207   188         198.8289653080        5410.4112060213      PI        B2 (3)
  208   136         198.8289653080        5410.4112060215      PI        B1 (2)
  209    81         199.2540870483        5421.9793566887     SG+        A1 (1)
  210    82         216.6391560462        5895.0511346245     SG+        A1 (1)
  211   137         225.1915910302        6127.7747219800      PI        B1 (2)
  212   189         225.1915910303        6127.7747219802      PI        B2 (3)
  213    83         225.9930408060        6149.5832791043     SG+        A1 (1)
  214   190         395.4868797545       10761.7451146706      PI        B2 (3)
  215   138         395.4868797545       10761.7451146708      PI        B1 (2)
  216    84         396.2200053053       10781.6944751120     SG+        A1 (1)
  217    85         509.3571860648       13860.3136775535     SG+        A1 (1)
  218    86         895.4672209440       24366.9018712394     SG+        A1 (1)


  VSCF finished.

 @CHECKOUT-I, Total execution time (CPU/WALL):       54.71/       9.85 seconds.
--executable xvscf finished with status     0 in        9.88 seconds (walltime).
 --invoking executable--
/nfs/workspaces/public/cfour_mpi/bin/xvtran
 @GETMEM-I,  Allocated    3814 MB of main memory.
  Full RHF integral transformation
  Transformation of IIII integrals :
  1 pass through the AO integral file was required.
     4573756 AO integrals were read.
     8776449 MO integrals were written to HF2.
  Transformation of IIJJ integrals :
  1 pass through the AO integral file was required.
    10351935 AO integrals were read.
    14589754 MO integrals were written to HF2.
  Transformation of IJIJ integrals :
  1 pass through the AO integral file was required.
    19644968 AO integrals were read.
    27347408 MO integrals were written to HF2.
  Transformation of IJKL integrals :
  1 pass through the AO integral file was required.
    14534383 AO integrals were read.
    18483187 MO integrals were written to HF2.
  Summary of active molecular orbitals: 
------------------------------------------------------------------------
 
  Index      Eigenvalue    Symmetry    Index      Eigenvalue    Symmetry
------------------------------------------------------------------------
     1       -20.6666821        1       110         4.2063898        2
     2       -11.3832625        1       111         4.2310194        2
     3        -1.4871256        1       112         4.7868611        2
     4        -0.8004006        1       113         5.0505639        2
     5        -0.5604066        1       114         5.7567138        2
     6        -0.6189286        2       115         6.0889833        2
     7        -0.6189286        3       116         6.3131799        2
     8         0.0613966        1       117         6.4339091        2
     9         0.0727240        1       118         7.3746789        2
    10         0.1568257        1       119         8.3297190        2
    11         0.2274408        1       120        10.1195114        2
    12         0.2283750        1       121        10.8501604        2
    13         0.3004978        1       122        11.3394692        2
    14         0.3891570        1       123        11.8551540        2
    15         0.5089437        1       124        12.5838364        2
    16         0.5378778        1       125        13.9121746        2
    17         0.6278524        1       126        19.3103888        2
    18         0.7661635        1       127        26.9343809        2
    19         0.7785605        1       128        33.7766051        2
    20         0.8675784        1       129        47.5901852        2
    21         0.8846528        1       130        66.7707707        2
    22         0.8877660        1       131        98.6522391        2
    23         1.1625156        1       132        98.7303098        2
    24         1.4552055        1       133       103.2827408        2
    25         1.5260352        1       134       103.3561651        2
    26         1.6673566        1       135       115.3702865        2
    27         1.7620267        1       136       117.0285562        2
    28         1.7885111        1       137       198.8289653        2
    29         2.1019096        1       138       225.1915910        2
    30         2.1045177        1       139       395.4868798        2
    31         2.1856466        1       140         0.0602805        3
    32         2.3110640        1       141         0.1283128        3
    33         2.3559678        1       142         0.1665039        3
    34         2.4807927        1       143         0.3150269        3
    35         2.8711789        1       144         0.3952606        3
    36         2.9658511        1       145         0.6248025        3
    37         3.4814012        1       146         0.7474323        3
    38         3.7154528        1       147         0.8167909        3
    39         3.9287767        1       148         0.8850455        3
    40         4.1814337        1       149         1.0653317        3
    41         4.2565066        1       150         1.4438914        3
    42         4.3596388        1       151         1.5613933        3
    43         4.4603518        1       152         1.7662456        3
    44         5.0833316        1       153         1.9922090        3
    45         5.1165684        1       154         2.2472537        3
    46         5.6685599        1       155         2.3140577        3
    47         5.8931045        1       156         2.3443257        3
    48         6.2376310        1       157         2.5860150        3
    49         6.2875377        1       158         2.7869240        3
    50         6.5684931        1       159         3.7310781        3
    51         6.9265937        1       160         4.0865927        3
    52         7.1628797        1       161         4.2063898        3
    53         7.7157803        1       162         4.2310194        3
    54         8.1559089        1       163         4.7868611        3
    55        10.5680884        1       164         5.0505639        3
    56        10.6046071        1       165         5.7567138        3
    57        11.0757983        1       166         6.0889833        3
    58        11.0929193        1       167         6.3131799        3
    59        11.4850914        1       168         6.4339091        3
    60        12.2409832        1       169         7.3746789        3
    61        12.8458315        1       170         8.3297190        3
    62        13.1469592        1       171        10.1195114        3
    63        15.2716603        1       172        10.8501604        3
    64        17.9812384        1       173        11.3394692        3
    65        20.5658321        1       174        11.8551540        3
    66        26.4882822        1       175        12.5838364        3
    67        28.0104446        1       176        13.9121746        3
    68        34.8806812        1       177        19.3103888        3
    69        36.6187520        1       178        26.9343809        3
    70        47.1104019        1       179        33.7766051        3
    71        48.4419680        1       180        47.5901852        3
    72        64.1571367        1       181        66.7707707        3
    73        67.7476719        1       182        98.6522391        3
    74        98.6713952        1       183        98.7303098        3
    75        98.7445339        1       184       103.2827408        3
    76       103.3265339        1       185       103.3561651        3
    77       103.4038882        1       186       115.3702865        3
    78       115.1519001        1       187       117.0285562        3
    79       115.9168833        1       188       198.8289653        3
    80       117.9118102        1       189       225.1915910        3
    81       122.7952786        1       190       395.4868798        3
    82       198.5707054        1       191         0.2274408        4
    83       199.2540870        1       192         0.5378778        4
    84       216.6391560        1       193         0.7661635        4
    85       225.9930408        1       194         0.8877660        4
    86       396.2200053        1       195         1.5260352        4
    87       509.3571861        1       196         1.7620267        4
    88       895.4672209        1       197         2.1019096        4
    89         0.0602805        2       198         2.1856466        4
    90         0.1283128        2       199         2.3559678        4
    91         0.1665039        2       200         2.9658511        4
    92         0.3150269        2       201         3.7154528        4
    93         0.3952606        2       202         4.1814337        4
    94         0.6248025        2       203         4.3596388        4
    95         0.7474323        2       204         5.1165684        4
    96         0.8167909        2       205         5.8931045        4
    97         0.8850455        2       206         6.2875377        4
    98         1.0653317        2       207         6.5684931        4
    99         1.4438914        2       208         7.1628797        4
   100         1.5613933        2       209        10.6046071        4
   101         1.7662456        2       210        11.0929193        4
   102         1.9922090        2       211        12.2409832        4
   103         2.2472537        2       212        12.8458315        4
   104         2.3140577        2       213        26.4882822        4
   105         2.3443257        2       214        47.1104019        4
   106         2.5860150        2       215        98.6713952        4
   107         2.7869240        2       216       103.3265339        4
   108         3.7310781        2       217       115.1519001        4
   109         4.0865927        2       218       198.5707054        4
------------------------------------------------------------------------
  -20.6666820572347       -11.3832625374136       -1.48712563354171     
 -0.800400555836865      -0.560406608517902      -0.618928558408876     
 -0.618928558408858       6.139659680214953E-002  7.272397723242884E-002
  0.156825663457871       0.227440806527061       0.228375040884255     
  0.300497792771857       0.389157013646883       0.508943706615484     
  0.537877841573020       0.627852375238691       0.766163529470831     
  0.778560534821545       0.867578423444358       0.884652836582609     
  0.887765971175507        1.16251564071911        1.45520546264000     
   1.52603520595010        1.66735658169185        1.76202669959940     
   1.78851110158273        2.10190958198244        2.10451768654670     
   2.18564661937666        2.31106402011165        2.35596776361360     
[...]
 Convergence information after     9 iterations: 
 Largest element of residual vector : -0.11693697E-04.
 Largest element of DIIS residual   : -0.60244359E-05.
 Convergence information after    10 iterations: 
 Largest element of residual vector : -0.66968536E-05.
 Largest element of DIIS residual   : -0.46168480E-05.
 Convergence information after    11 iterations: 
 Largest element of residual vector : -0.28656401E-05.
 Largest element of DIIS residual   : -0.89011673E-06.
 Convergence information after    12 iterations: 
 Largest element of residual vector : -0.12108879E-05.
 Largest element of DIIS residual   :  0.49271229E-06.
 Convergence information after    13 iterations: 
 Largest element of residual vector :  0.39273891E-06.
 Largest element of DIIS residual   :  0.19740985E-06.
 Convergence information after    14 iterations: 
 Largest element of residual vector :  0.17746089E-06.
 Largest element of DIIS residual   :  0.83904989E-07.
 Perturbed amplitude equations converged in    14 iterations.
  Dominant contributions to perturbed wavefunction:
    7    7  141   28   0.2395178696 ABAB
    7    7   28  141   0.2395178696 ABAB
    7    7  141   37  -0.2033758369 ABAB
    7    7   37  141  -0.2033758369 ABAB
    7    7  141   39   0.1598531026 ABAB
    7    7   39  141   0.1598531026 ABAB
    7    7  141   55   0.1596416856 ABAB
    7    7   55  141   0.1596416856 ABAB
    7    6   28   90   0.1563506033 ABAB
    6    7   90   28   0.1563506033 ABAB
    7    7  141   53  -0.1490148971 ABAB
    7    7   53  141  -0.1490148971 ABAB
    7    7  141   44   0.1434518624 ABAB
    7    7   44  141   0.1434518624 ABAB
    7    7  140   28   0.1399999262 ABAB
    7    7   28  140   0.1399999262 ABAB
    5    5  141   44   0.1349093965 ABAB
    5    5   44  141   0.1349093965 ABAB
    7    6   37   90  -0.1331076063 ABAB
    6    7   90   37  -0.1331076063 ABAB
  norm of converged amps    2.32002420295274     
 Starting iterative solution of the perturbed Lambda equations.
 The DIIS procedure is used to accelerate convergence.
 Convergence criterion is 10**(-7).
 Maximum number of iterations is 100.
 Convergence information after     1 iterations: 
 Largest element of residual vector :  0.66186819E-01.
 Largest element of DIIS residual   :  0.66186819E-01.
 Convergence information after     2 iterations: 
 Largest element of residual vector : -0.85503197E-02.
 Largest element of DIIS residual   : -0.48661972E-02.
 Convergence information after     3 iterations: 
 Largest element of residual vector : -0.48916013E-02.
 Largest element of DIIS residual   : -0.42823652E-02.
 Convergence information after     4 iterations: 
 Largest element of residual vector : -0.30342201E-02.
 Largest element of DIIS residual   : -0.24397974E-02.
 Convergence information after     5 iterations: 
 Largest element of residual vector : -0.18531739E-02.
 Largest element of DIIS residual   : -0.89702648E-03.
 Convergence information after     6 iterations: 
 Largest element of residual vector : -0.62021724E-03.
 Largest element of DIIS residual   : -0.15689451E-03.
 Convergence information after     7 iterations: 
 Largest element of residual vector : -0.13632433E-03.
 Largest element of DIIS residual   :  0.53752406E-04.
 Convergence information after     8 iterations: 
 Largest element of residual vector :  0.30202559E-04.
 Largest element of DIIS residual   : -0.24493638E-04.
 Convergence information after     9 iterations: 
 Largest element of residual vector : -0.87517465E-05.
 Largest element of DIIS residual   : -0.58703840E-05.
 Convergence information after    10 iterations: 
 Largest element of residual vector : -0.52244772E-05.
 Largest element of DIIS residual   : -0.39741832E-05.
 Convergence information after    11 iterations: 
 Largest element of residual vector : -0.21775858E-05.
 Largest element of DIIS residual   : -0.85641524E-06.
 Convergence information after    12 iterations: 
 Largest element of residual vector : -0.10731919E-05.
 Largest element of DIIS residual   :  0.69732850E-06.
 Convergence information after    13 iterations: 
 Largest element of residual vector :  0.52816665E-06.
 Largest element of DIIS residual   :  0.35143392E-06.
 Convergence information after    14 iterations: 
 Largest element of residual vector :  0.29376833E-06.
 Largest element of DIIS residual   :  0.14253685E-06.
 Convergence information after    15 iterations: 
 Largest element of residual vector :  0.96132138E-07.
 Largest element of DIIS residual   :  0.44628725E-07.
 Perturbed Lambda equations converged in    15 iterations.
  Dominant contributions to perturbed wavefunction:
    7    7  141   28   0.2244740751 ABAB
    7    7   28  141   0.2244740751 ABAB
    7    7  141   37  -0.1918858233 ABAB
    7    7   37  141  -0.1918858233 ABAB
    7    7  141   39   0.1483297235 ABAB
    7    7   39  141   0.1483297235 ABAB
    7    7  141   55   0.1479080203 ABAB
    7    7   55  141   0.1479080203 ABAB
    7    6   28   90   0.1443501701 ABAB
    6    7   90   28   0.1443501701 ABAB
    7    7  141   53  -0.1388005009 ABAB
    7    7   53  141  -0.1388005009 ABAB
    7    7  140   28   0.1320186062 ABAB
    7    7   28  140   0.1320186062 ABAB
    7    7  141   44   0.1309796194 ABAB
    7    7   44  141   0.1309796194 ABAB
    5    5  141   44   0.1293641880 ABAB
    5    5   44  141   0.1293641880 ABAB
    7    7  141   19  -0.1242098718 ABAB
    7    7   19  141  -0.1242098718 ABAB
        The DBOC first-order density matrix is being calculated 
             (Symmetry block 3, perturbation   2)
 term   6.26270991893271     
 final tnorm  0.880826001358491     
  norm contr. I: |<0|L dT/dx|0>|^2   0.000000000000000E+000
  norm contr. II: <0|[nabla(1+L)e-T][nabla e^T]|0>   6.26270991893271     
  total norm contribution   6.26270991893271     
 oo  1.094965263902748E-002
 vv  -47.0091011877424     
 vo  4.663275064852095E-002
  Correlated perturbed 1-el contribution to DBOC  -46.9515187844548       cm**-1
  SUM_I |dc_I/dx|^2 contribution to DBOC   23.5772842002529       cm**-1
 
 
  The total diagonal Born-Oppenheimer correction (DBOC) is:      0.0040093722 a.u.
  The total diagonal Born-Oppenheimer correction (DBOC) is:        879.955493 cm-1
 
 Total CC energy including DBOC  -113.275135841589     
 First-order density matrix is being calculated  (Symmetry block 3, perturbation   2)
 Calculation of the contributions of <pq||rs> to dI(i,j)/dx required   1.9 seconds.
 Calculation of the contributions of <pq||rs> to dI(a,b)/dx required  14.5 seconds.
 Calculation of the contributions of <pq||rs> to dI(i,a)/dx required   8.9 seconds.
 First-order Z-vector equations are solved for 1 perturbation.
 Convergence reached after  18 iterations.
        U*G(pq,rs) contribution is being calculated
             (Symmetry block 3, perturbation   2)

 CCSD contribution to force constants 

        0.0000000000        0.0000000000        0.0000000000
        0.0000000000        0.0000000000        0.0000000000
        0.0000000000        0.0000000000        0.0000000000
        0.0000000000        0.0000000000        0.0000000000
        0.0000000000        0.0000000000        0.0000000000
        0.0000000000        0.0000000000        0.0000000000
        0.0000000000        0.0000000000        0.0000000000
        0.0000000000        0.0000000000        0.0000000000
        0.0000000000        0.0000000000        0.0000000000
        0.0000000000        0.0000000000        0.0000000000
        0.0000000000        0.0000000000        0.0000000000
        0.0000000000        0.1589287346       -0.1589287346

 CCSD contribution to dipole derivatives 

        0.0000000000        0.0000000000        0.0000000000
        0.0000000000        0.0000000000        0.0000000000
        0.0000000000        0.0000000000        0.0000000000
        0.0000000000        0.0000000000       -0.0466488871
        0.0000000000        0.0000000000        0.0000000000
        0.0000000000        0.0000000000        0.0000000000
 @CHECKOUT-I, Total execution time (CPU/WALL):      943.16/     194.24 seconds.
--executable xsdcc finished with status     0 in      194.28 seconds (walltime).
 --invoking executable--
/nfs/workspaces/public/cfour_mpi/bin/xanti
 @GETMEM-I,  Allocated    3814 MB of main memory.
 CCSD MO derivative gammas will be sorted to Mulliken order.
 @CHECKOUT-I, Total execution time (CPU/WALL):        9.77/      24.61 seconds.
--executable xanti finished with status     0 in       24.64 seconds (walltime).
 --invoking executable--
/nfs/workspaces/public/cfour_mpi/bin/xbcktrn
 @GETMEM-I,  Allocated    3814 MB of main memory.
 CCSD MO derivative gammas will be transformed to the AO basis.
 @CHECKOUT-I, Total execution time (CPU/WALL):       18.37/       3.15 seconds.
--executable xbcktrn finished with status     0 in        3.18 seconds (walltime).
 --invoking executable--
/nfs/workspaces/public/cfour_mpi/bin/xvdint
 @GETMEM-I,  Allocated    3814 MB of main memory.
 One- and two-electron integral derivatives are calculated
 for RHF-CC/MBPT hessians and dipole derivatives.
 Spherical gaussians are used.
  magnet F F
                    8722  records have been written to the Sort file.
  Total length of Sort file :             178609116  words.
 Evaluation of 2el integral derivatives

                      Two-electron integral gradient
                      ------------------------------

                         C #1 z     0.0000000000
                         O #2 z     0.0000000000


 C #1       0.0000000000           -0.4745807524            0.0000000000
 O #2       0.0000000000            0.4745807524            0.0000000000


 Evaluation of 2e integral derivatives required  252.35 seconds.
  contribution to Hessian
        0.0000000000        0.0000000000        0.0000000000
        0.0000000000       -0.4745807524        0.4745807524
 @CHECKOUT-I, Total execution time (CPU/WALL):      252.33/      59.23 seconds.
--executable xvdint finished with status     0 in       59.26 seconds (walltime).
 --invoking executable--
/nfs/workspaces/public/cfour_mpi/bin/xanti
 @GETMEM-I,  Allocated    3814 MB of main memory.
 CCSD MO gammas will be sorted to Mulliken order.
 @CHECKOUT-I, Total execution time (CPU/WALL):       10.33/       8.94 seconds.
--executable xanti finished with status     0 in        8.97 seconds (walltime).
 --invoking executable--
/nfs/workspaces/public/cfour_mpi/bin/xbcktrn
 @GETMEM-I,  Allocated    3814 MB of main memory.
 CCSD MO gammas will be transformed to the AO basis.
 @CHECKOUT-I, Total execution time (CPU/WALL):       22.72/       3.56 seconds.
--executable xbcktrn finished with status     0 in        3.59 seconds (walltime).
 --invoking executable--
/nfs/workspaces/public/cfour_mpi/bin/xvdint
 @GETMEM-I,  Allocated    3814 MB of main memory.
 One- and two-electron integral derivatives are calculated
 for RHF-CC/MBPT hessians and dipole derivatives.
 Spherical gaussians are used.
  magnet F F

                     Kinetic energy integral gradient
                     --------------------------------

                         C #1 z    -1.3532879725
                         O #2 z     1.3532879725


 C #1       0.0000000000            0.0000000000           -1.3532879725
 O #2       0.0000000000            0.0000000000            1.3532879725



                   Nuclear attraction integral gradient
                   ------------------------------------

                         C #1 z    22.3224602326
                         O #2 z   -22.3224602326


 C #1       0.0000000000            0.0000000000           22.3224602326
 O #2       0.0000000000            0.0000000000          -22.3224602326



                      Reorthonormalization gradient
                      -----------------------------

                         C #1 z     0.0000000000
                         O #2 z     0.0000000000


 C #1       0.0000000000            0.0000000000            0.0000000000
 O #2       0.0000000000            0.0000000000            0.0000000000



                     Kinetic energy integral Hessian
                     -------------------------------


           Symmetry 1

           C #1 z      O #2 z

 C #1 z    1.091046
 O #2 z   -1.091046    1.091046


           Symmetry 2

           C #1 x      O #2 x

 C #1 x   -1.669757
 O #2 x    1.669757   -1.669757


           Symmetry 3

           C #1 y      O #2 y

 C #1 y   -1.669757
 O #2 y    1.669757   -1.669757




           C #1 x      C #1 y      C #1 z      O #2 x      O #2 y      O #2 z

 C #1 x   -1.669757
 C #1 y    0.000000   -1.669757
 C #1 z    0.000000    0.000000    1.091046

 O #2 x    1.669757    0.000000    0.000000   -1.669757
 O #2 y    0.000000    1.669757    0.000000    0.000000   -1.669757
 O #2 z    0.000000    0.000000   -1.091046    0.000000    0.000000    1.091046




                   Nuclear attraction integral Hessian
                   -----------------------------------


           Symmetry 1

           C #1 z      O #2 z

 C #1 z  -13.023959
 O #2 z   13.023959  -13.023959


           Symmetry 2

           C #1 x      O #2 x

 C #1 x   18.704094
 O #2 x  -18.704094   18.704094


           Symmetry 3

           C #1 y      O #2 y

 C #1 y   18.704094
 O #2 y  -18.704094   18.704094




           C #1 x      C #1 y      C #1 z      O #2 x      O #2 y      O #2 z

 C #1 x   18.704094
 C #1 y    0.000000   18.704094
 C #1 z    0.000000    0.000000  -13.023959

 O #2 x  -18.704094    0.000000    0.000000   18.704094
 O #2 y    0.000000  -18.704094    0.000000    0.000000   18.704094
 O #2 z    0.000000    0.000000   13.023959    0.000000    0.000000  -13.023959




                Highest order reorthonormalization Hessian
                ------------------------------------------


           Symmetry 1

           C #1 z      O #2 z

 C #1 z    0.000000
 O #2 z    0.000000    0.000000


           Symmetry 2

           C #1 x      O #2 x

 C #1 x    0.000000
 O #2 x    0.000000    0.000000


           Symmetry 3

           C #1 y      O #2 y

 C #1 y    0.000000
 O #2 y    0.000000    0.000000




           C #1 x      C #1 y      C #1 z      O #2 x      O #2 y      O #2 z




                Electronic contributions to dipole moment
                -----------------------------------------

                               au             Debye

                    z      0.63083430      1.60342113

  Conversion factor used: 1 a.u. =   2.54174691 Debye 



   Electronic contributions to static part of dipole moment derivatives
   --------------------------------------------------------------------


                     Total dipole moment derivatives
                     -------------------------------


           Symmetry 1
                              Ez

               C #1 z    -5.73006783
               O #2 z    -8.26993217

           Symmetry 2
                              Ex

               C #1 x    -5.76761680
               O #2 x    -8.23238320

           Symmetry 3
                              Ey

               C #1 y    -5.76761680
               O #2 y    -8.23238320



                       Ex          Ey          Ez

      C #1    x   -5.767617    0.000000    0.000000
      C #1    y    0.000000   -5.767617    0.000000
      C #1    z    0.000000    0.000000   -5.730068

      O #2    x   -8.232383    0.000000    0.000000
      O #2    y    0.000000   -8.232383    0.000000
      O #2    z    0.000000    0.000000   -8.269932

 Evaluation of 1e integral derivatives required    1.65 seconds.
                    8815  records have been written to the Sort file.
  Total length of Sort file :             180513570  words.
 Evaluation of 2el integral derivatives

                      Two-electron integral gradient
                      ------------------------------

                         C #1 z   -10.7442018475
                         O #2 z    10.7442018475


 C #1       0.0000000000            0.0000000000          -10.7442018475
 O #2       0.0000000000            0.0000000000           10.7442018475


 Evaluation of 2e integral derivatives required  537.54 seconds.

                            Molecular gradient
                            ------------------

                         C #1 z     0.5602987367
                         O #2 z    -0.5602987367


 C #1       0.0000000000            0.0000000000            0.5602987367
 O #2       0.0000000000            0.0000000000           -0.5602987367


  Molecular gradient norm 0.792E+00

                            Molecular hessian
                            -----------------


           Symmetry 1

           C #1 z      O #2 z

 C #1 z   57.529529
 O #2 z  -57.529529   57.529529


           Symmetry 2

           C #1 x      O #2 x

 C #1 x    0.511474
 O #2 x   -0.511474    0.511474


           Symmetry 3

           C #1 y      O #2 y

 C #1 y    0.511474
 O #2 y   -0.511474    0.511474




           C #1 x      C #1 y      C #1 z      O #2 x      O #2 y      O #2 z

 C #1 x    0.511474
 C #1 y    0.000000    0.511474
 C #1 z    0.000000    0.000000   57.529529

 O #2 x   -0.511474    0.000000    0.000000    0.511474
 O #2 y    0.000000   -0.511474    0.000000    0.000000    0.511474
 O #2 z    0.000000    0.000000  -57.529529    0.000000    0.000000   57.529529




                           Total dipole moment
                           -------------------

                               au             Debye

                    z      0.01161104      0.02951233

  Conversion factor used: 1 a.u. =   2.54174691 Debye 



                     Total dipole moment derivatives
                     -------------------------------


           Symmetry 1
                              Ez

               C #1 z     0.71549146
               O #2 z    -0.71549146

           Symmetry 2
                              Ex

               C #1 x     0.00478312
               O #2 x    -0.00478312

           Symmetry 3
                              Ey

               C #1 y     0.00478312
               O #2 y    -0.00478312



                       Ex          Ey          Ez

      C #1    x    0.004783    0.000000    0.000000
      C #1    y    0.000000    0.004783    0.000000
      C #1    z    0.000000    0.000000    0.715491

      O #2    x   -0.004783    0.000000    0.000000
      O #2    y    0.000000   -0.004783    0.000000
      O #2    z    0.000000    0.000000   -0.715491

 @CHECKOUT-I, Total execution time (CPU/WALL):      539.17/      95.87 seconds.
--executable xvdint finished with status     0 in       95.90 seconds (walltime).
 --invoking executable--
/nfs/workspaces/public/cfour_mpi/bin/xjoda
  @GTFLGS-I, Hessian will be transformed to curvilinear coordinates.
  @GTFLGS-I, Hessian will be transformed to curvilinear coordinates.
  igrd and ihes are                      0                     1
  gradient from JOBARC 
   0.000000000000000   0.000000000000000   0.560298736683884
   0.000000000000000   0.000000000000000  -0.560298736683884
 
  @PROJFCM-I, Projecting force constant matrix onto totally symmetric subspace.
  Largest difference between matrix elements of symmetrized
  and unsymmetrized FCM :     0.4573441625E-10.
  read isotopes from ZMAT file 
 
  Summary of diagonal Born-Oppenheimer correction at the correlated level
  The total diagonal Born-Oppenheimer correction (DBOC) is:      0.0040093722 a.u.
  The total diagonal Born-Oppenheimer correction (DBOC) is:        879.955493 cm-1
  The total diagonal Born-Oppenheimer correction (DBOC) is:            10.527 kJ/mole
  hellooooooo 
  readis is  F
 
 @CHECKOUT-I, Total execution time (CPU/WALL):        0.01/       0.01 seconds.
--executable xjoda finished with status     0 in        0.04 seconds (walltime).
  The final electronic energy is      -113.275135841588991 a.u. 
  This computation required                         2019.70 seconds (walltime).
