 --invoking executable--
/nfs/workspaces/public/cfour_mpi/bin/xjoda


   *************************************************************************
         <<<     CCCCCC     CCCCCC   |||     CCCCCC     CCCCCC   >>>
       <<<      CCC        CCC       |||    CCC        CCC         >>>
      <<<      CCC        CCC        |||   CCC        CCC            >>>
    <<<        CCC        CCC        |||   CCC        CCC              >>>
      <<<      CCC        CCC        |||   CCC        CCC            >>>
       <<<      CCC        CCC       |||    CCC        CCC         >>>
         <<<     CCCCCC     CCCCCC   |||     CCCCCC     CCCCCC   >>>
   *************************************************************************

     ****************************************************************
     * CFOUR Coupled-Cluster techniques for Computational Chemistry *
     ****************************************************************
 

   Department of Chemistry                Institut fuer Physikalische Chemie
   University of Florida                  Universitaet Mainz
   Gainesville, FL 32611, USA             D-55099 Mainz, Germany

   Department of Chemistry                Fakultaet fuer Chemie und Biowiss.
   Johns Hopkins University               Karlsruher Institut fuer Technologie
   Baltimore, MD 21218, USA               D-76131 Karlsruhe, Germany

   Department of Chemistry                Department of Physical Chemistry
   Southern Methodist University          Eotvos Lorand University
   Dallas, TX 75275, USA                  H-1053 Budapest, Hungary

 
                       Version 2.1
 
                     vincent.theory.phys.ucl.ac.uk                     
                     Tue  4 Mar 14:43:12 GMT 2025                      
                     integer*8 version is running
 
********************************************************************************
*                          Input from ZMAT file                                *
********************************************************************************
Carbon Monoxide DBOC calculation                                                
C                                                                               
O 1 r                                                                           
                                                                                
r=1.8                                                                           
                                                                                
                                                                                
*CFOUR(CALC=CCSD,BASIS=AUG-PCVQZ,SCF_CONV=10                                    
CC_CONV=14,DBOC=ON,MEMORY=500000000                                             
ZFIELD=-200)                                                                    
                                                                                
%isotopes                                                                       
13                                                                              
16                                                                              
********************************************************************************
  @GTFLGS-I, Hessian will be transformed to curvilinear coordinates.
    -------------------------------------------------------------------
                    CFOUR Control Parameters 
    -------------------------------------------------------------------
        External           Internal           Value            Units
          Name               Name
    -------------------------------------------------------------------
       ABCDTYPE             IABCDT         STANDARD    [  0]    ***   
       ANHARMONIC           IANHAR         OFF         [  0]    ***   
       ANH_ALGORIT          IANALG         STANDARD    [  0]    ***   
       ANH_DERIVAT          IANDER         SECOND      [  1]    ***   
       ANH_MODE             ANHMOD         VIBRATION   [  0]    ***   
       ANH_STEPSIZ          ICUBST             50000          x 10-6  
       ANH_SYMMETR          IANHSM         ABELIAN     [  0]    ***   
       AO_LADDERS           IAOLAD         SINGLEPASS  [  1]    ***   
       AV_SCF               IAVSCF         OFF         [  0]    ***   
       BASIS                IBASIS         AUG-PCVQZ   [ 52]    ***   
       BOTHVECTORS          BOTHVC         OFF         [  0]    ***   
       BOX_POTENT           IPIAB          OFF         [  0]    ***   
       BREIT                IBREIT         OFF         [  0]    ***   
       BRUCK_CONV           IBRTOL          10D-  4             ***   
       BRUECKNER            IBRKNR         OFF         [  0]    ***   
       BUFFERSIZE           IBUFFS              4096            ***   
       CACHE_RECS           ICHREC             10               ***   
       CALCLEVEL            ICLLVL         CCSD        [ 10]    ***   
       CCORBOPT             ICCORB         OFF         [  0]  x 0.01  
       CC_CONV              ICCCNV          10D- 14             ***   
       CC_EXPORDER          ICCEOR              5               ***   
       CC_EXTRAPOL          ICCEXT         DIIS        [  1]    ***   
       CC_GUESS             ICCGES         MP2         [  0]    ***   
       CC_MAXCYC            ICCCYC            100              cycles 
       CC_PROGRAM           ICCPRO         VCC         [  0]    ***   
       CHARGE               ICHRGE              0               ***   
       CHOLESKY             ICHOLE         OFF         [  0]    ***   
       CIS_CONV             ICISTL              5               ***   
       COMM_SIZE            IPSIZE            ***               ***   
       CONSTANT             ICONST         OLD         [  1]    ***   
       CONTINUUM            ICONTU         NONE        [  0]    ***   
       CONTRACTION          ICNTYP         GENERAL     [  1]    ***   
       COORDINATES          ICOORD         INTERNAL    [  0]    ***   
       CPHF_CONVER          ICPHFT          10D- 16             ***   
       CPHF_MAXCYC          ICPHFC             64              cycles 
       CUBIC                ICUBIC         OFF         [  0]    ***   
       CURVILINEAR          ICURVY         ON          [  1]    ***   
       DBOC                 IDBOC          ON          [  1]    ***   
       DCT                  IDCT           OFF         [  0]    ***   
       DERIV_LEV            IDRLVL         SECOND      [  2]    ***   
       DEVMEM_SIZE          IDVMEM          50000000           MByte  
       DIAG_MRCC            IEOMST          10D-  0             ***   
       DIFF_TYPE            IDIFTY         RELAXED     [  0]    ***   
       DIRECT               IDIRCT         OFF         [  0]    ***   
       DROPMO               IDRPMO      NONE         
       ECP                  IECP           OFF         [  0]    ***   
       EIGENVECTOR          IVEC                1               ***   
       EL_ANHARM            IELANH         OFF         [  0]    ***   
       EOMFOLLOW            IEOMSR         ENERGY      [  0]    ***   
       EOMIP                IEOMIP         OFF         [  0]    ***   
       EOMLEVEL             HBARFM         SAME        [  0]    ***   
       EOM_MRCC             IMRCCE         NEW         [  1]    ***   
       EOM_NONIT            EOMNON         OFF         [  0]    ***   
       EOM_NSING            IEOMSI          10D-  0             ***   
       EOM_NSTATES          IMRCCD         DAVIDSON    [  0]    ***   
       EOM_NTRIP            IEOMTR          10D-  0             ***   
       EOM_ORDER            IEXORD         ENERGY      [  0]    ***   
       EOM_PROPSTA          IEOMST              0               ***   
       ESTATE_CONV          IEXTOL          10D-  5             ***   
       ESTATE_DIAG          IEXDIG         ITERATIVE   [  0]    ***   
       ESTATE_LOCK          IESLOC         ON          [  1]    ***   
       ESTATE_MAXC          IEXMXC             40               ***   
       ESTATE_PROP          IEXPRP         OFF         [  0]    ***   
       EVAL_HESS            IRECAL              0            # of cyc.
       EXCITATION           IEXCIT              0               ***   
       EXCITE               IEXCIT         NONE        [  0]    ***   
       EXTERN_POT           IEXPOT         OFF         [  0]    ***   
       FCGRADNEW            IFCGNW         OFF         [  0]    ***   
       FC_FIELD             IFINFC              0             x 10-6  
       FD_CALTYPE           IFDCAL         GRADONLY    [  0]    ***   
       FD_PROJECT           IFDPRJ         OFF         [  1]    ***   
       FD_STEPSIZE          IDISFD              0            10-4 bohr
       FD_USEGROUP          IFDGRP         FULL        [  0]    ***   
       FILE_RECSIZ          IFLREC              4096           words  
       FINITE_PERT          IFIPER              0             x 10-6  
       FIXGEOM              IFIXGM         OFF         [  0]    ***   
       FOCK                 IFOCK          AO          [  1]    ***   
       FREQ_ALGORI          IVIALG         STANDARD    [  0]    ***   
       FROZEN_CORE          IFROCO         OFF         [  0]    ***   
       GAMMA_ABCD           IGABCD         STORE       [  0]    ***   
       GAMMA_ABCI           IGABCI         STORE       [  0]    ***   
       GENBAS_1             IGNBS1              0               ***   
       GENBAS_2             IGNBS2              0               ***   
       GENBAS_3             IGNBS3              0               ***   
       GENBAS_4             IGNBS4              0               ***   
       GEO_CONV             ICONTL              5              H/bohr 
       GEO_MAXCYC           IOPTCY             50               ***   
       GEO_MAXSTEP          IMXSTP            300            millibohr
       GEO_METHOD           INR            SINGLE_POINT[  5]    ***   
       GIAO                 IGIAO          OFF         [  1]    ***   
       GIMIC                IGIMIC         OFF         [  0]    ***   
       GRID                 IGRID          OFF         [  0]    ***   
       GRID_ALGO            IGALGO         SERIAL      [  0]    ***   
       GUESS                IGUESS         MOREAD      [  0]    ***   
       HBAR                 IHBAR          OFF         [  0]    ***   
       HESS_TYPE            IHESTP         SCF         [  0]    ***   
       HF2_FILE             IHF2Fl         USE         [  1]    ***   
       HFSTABILITY          ISTABL         OFF         [  0]    ***   
       INCORE               INCORE         OFF         [  0]    ***   
       INPUT_MRCC           IMRCC          ON          [  1]    ***   
       INTEGRALS            INTTYP         VMOL        [  1]    ***   
       JODA_PRINT           IJPRNT              0               ***   
       KEYWORD_OUT          IDMPKW         NO          [  0]    ***   
       LINDEP_TOL           ILINDP              8               ***   
       LINEQ_CONV           IZTACN          10D-  7           cycles  
       LINEQ_EXPOR          ILMAXD              5               ***   
       LINEQ_MAXCY          ILMAXC            100               ***   
       LINEQ_TYPE           ILTYPE         DIIS        [  1]    ***   
       LOCK_ORBOCC          ILOCOC         OFF         [  0]    ***   
       MEMORY_SIZE          IMEMSZ         500000000           words  
       MEM_UNIT             IMEMU          INTEGERWORDS[  0]    ***   
       MRCC                 IMRCCC         OFF         [  0]    ***   
       MULTIPLICTY          IMULTP              1               ***   
       NACOUPLING           IVCOUP         OFF         [  0]    ***   
       NEGEVAL              IDIE           ABORT       [  0]    ***   
       NEWNORM              INEWNO         OFF         [  0]    ***   
       NON-HF               INONHF         OFF         [  0]    ***   
       NTOP_TAMP            ITOPT2             15               ***   
       NUC_MODEL            INUCMO         POINT       [  0]    ***   
       OCCUPATION           IOCCU   ESTIMATED BY SCF 
       OPEN-SHELL           IOPEN          SPIN-ORBITAL[  0]    ***   
       OPTVIB               IOPTVB         OFF         [  0]    ***   
       ORBITALS             IORBTP         STANDARD    [  0]    ***   
       PARALLEL             IPARAL         ON          [  1]    ***   
       PARA_INT             IPINTS         ON          [  1]    ***   
       PARA_PRINT           IPPRIN              0               ***   
       PERT_ORB             IPTORB         STANDARD    [  0]    ***   
       POINTS               IGRDFD              0               ***   
       PRINT                IPRNT               0               ***   
       PROPS                IPROPS         OFF         [  0]    ***   
       PROP_INTEGR          IINTYP         INTERNAL    [  0]    ***   
       PSI                  IPSI           OFF         [  0]    ***   
       QC_ALG               IQCALG         FLM         [  0]    ***   
       QC_LINALG            IQCLIN         TRIDIAG     [  2]    ***   
       QC_MAXCYC            IQCMAX          10D-100           cycles  
       QC_MAXSCFCY          IQCMSC          10D- 15           cycles  
       QC_RTRUST            IQCRTR          10D-  0           x 10-3  
       QC_SKIPSCF           IQCSKI         OFF         [  0]    ***   
       QC_START             IQCSTA          10D-  1             ***   
       QRHFGUESS            IQGUES         OFF         [  0]    ***   
       QUARTIC              IQUART         OFF         [  0]    ***   
       RAMAN_INT            IRAMIN         OFF         [  0]    ***   
       RAMAN_ORB            IRAMRE         UNRELAXED   [  0]    ***   
       RDO                  IRDOFM         ON          [  1]    ***   
       REDUCE_REPR          REDREP         Ir          [  0]    ***   
       REFERENCE            IREFNC         RHF         [  0]    ***   
       RELATIVIST           IRELAT         OFF         [  0]    ***   
       RELAX_DENS           IRDENS         ON          [  1]    ***   
       RESET_FLAGS          IRESET         OFF         [  0]    ***   
       RESTART_CC           ICCRES         OFF         [  0]    ***   
       ROT_EVEC             ROTVEC              0               ***   
       SAVE_INTS            ISVINT         OFF         [  0]    ***   
       SCALE_ON             ISTCRT              0               ***   
       SCF_CONV             ISCFCV          10D- 10             ***   
       SCF_DAMPING          IDAMP               0             x 10-3  
       SCF_EXPORDE          IRPPOR              6               ***   
       SCF_EXPSTAR          IRPPLS              8               ***   
       SCF_EXTRAPO          IRPP           ON          [  1]    ***   
       SCF_MAXCYC           ISCFCY            150              cycles 
       SCF_NOSTOP           ISCFST         OFF         [  0]    ***   
       SCF_PRINT            ISCFPR              0               ***   
       SCF_PROG             ISCFPR         SCF         [  0]    ***   
       SD_FIELD             IFINSD              0             x 10-6  
       SOPERT               IPERSO         OFF         [  0]    ***   
       SPHERICAL            IDFGHI         ON          [  1]    ***   
       SPINORBIT            ISOCAL         OFF         [  0]    ***   
       SPINROTATIO          ISRCON         OFF         [  0]    ***   
       SPIN_FLIP            ISPFLP         OFF         [  0]    ***   
       SPIN_ORBIT           ISPORB         OFF         [  0]    ***   
       SPIN_SCAL            ISCSMP         OFF         [  0]    ***   
       STEEPSCALE           ISTPSC              1000          x 10-3  
       SUBGROUP             ISUBGP         DEFAULT     [  0]    ***   
       SUBGRPAXIS           ISBXYZ         X           [  0]    ***   
       SYMMETRY             ISYM           ON          [  0]    ***   
       SYM_CHECK            ISYMCK         OVERRIDE    [  1]    ***   
       T3_EXTRAPOL          IT3EXT         OFF         [  0]    ***   
       T4_EXTRAPOL          IT4EXP         OFF         [  0]    ***   
       TAMP_SUM             IEVERY              5               ***   
       TESTSUITE            ITESTS         OFF         [  0]    ***   
       THERMOCH             ITHERM         OFF         [  0]    ***   
       TOL_CHOLESK          ITOLCH          10D-  4             ***   
       TRANGRAD             IRESRM         OFF         [  0]    ***   
       TRANS_INV            ITRAIN         IGNORE      [  1]    ***   
       TREAT_PERT           ITREAT         SIMULTANEOUS[  0]    ***   
       TRIP_ALGORI          ITRALG         NORMAL      [  0]    ***   
       UIJ_THRESHO          IUIJTH              1               ***   
       UNITS                IUNITS         ANGSTROM    [  0]    ***   
       UNOS                 IUNOS          OFF         [  0]    ***   
       UPDATE_HESS          IHUPDT         ON          [  1]    ***   
       VIBPHASE             ISETPH         STANDARD    [  0]    ***   
       VIBRATION            IVIB           ANALYTIC    [  1]    ***   
       VIB_ALGORIT          IGEALG         STANDARD    [  0]    ***   
       VNATORB              IVNORB         OFF         [  0]    ***   
       VTRAN                IVTRAN         FULL/PARTIAL[  0]    ***   
       XFIELD               IXEFLD              0             x 10-6  
       XFORM_TOL            IXFTOL          10D- 11             ***   
       YFIELD               IYEFLD              0             x 10-6  
       ZFIELD               IZEFLD            ***             x 10-6  
       ZSCALE_EXP           IZEXPS         OFF         [  0]    ***   
    -------------------------------------------------------------------
   2 entries found in Z-matrix 
   Job Title : Carbon Monoxide DBOC calculation                                                
   There are  1 unique internal coordinates.
   Of these,  0 will be optimized.
   User supplied Z-matrix: 
--------------------------------------------------------------------------------
       SYMBOL    BOND      LENGTH    ANGLE     ANGLE     DIHED     ANGLE
                  TO      (ANGST)    WRT      (DEG)      WRT      (DEG)
--------------------------------------------------------------------------------
        C    
        O          1         r    
                  *Initial values for internal coordinates* 
                      Name             Value
                        r               1.8000000000
--------------------------------------------------------------------------------
  read isotopes from ZMAT file 
   Rotational constants (in cm-1): 
          0.7254145900             0.7254145900
   Rotational constants (in MHz): 
      21747.3853476923         21747.3853476923
********************************************************************************
   The full molecular point group is CXv .
   The largest Abelian subgroup of the full molecular point group is C2v .
   The computational point group is C2v .
********************************************************************************
--------------------------------------------------------------------------------
   Analysis of internal coordinates specified by Z-matrix 
--------------------------------------------------------------------------------
   *The nuclear repulsion energy is   14.111389333333332 a.u.
   *There is   1 degree of freedom within the tot. symm. molecular subspace.
   *Z-matrix requests optimization of   0 coordinates.
   *The optimization is constrained.
   *The following   1 parameters can have non-zero 
    derivatives within the totally symmetric subspace:
             r    [ 1]
   *The following   0 parameters are to be optimized:

   *The following coordinates must be varied in an  unconstrained optimization.
             r    [ 1]
--------------------------------------------------------------------------------


 ----------------------------------------------------------------
         Coordinates used in calculation (QCOMP) 
 ----------------------------------------------------------------
 Z-matrix   Atomic            Coordinates (in bohr)
  Symbol    Number           X              Y              Z
 ----------------------------------------------------------------
     C         6        -0.00000000     0.00000000     1.87620940
     O         8         0.00000000     0.00000000    -1.52529833
 ----------------------------------------------------------------
 
   Interatomic distance matrix (Angstroms) 
 
                 C             O    
                [ 1]        [ 2]
  C    [ 1]     0.00000
  O    [ 2]     1.80000     0.00000
 rotcon2
   Rotational constants (in cm-1): 
          0.7254145900             0.0000000000
   Rotational constants (in MHz): 
      21747.3853476923             0.0000000000
  ECPDATA file not present.   Using default ECPDATA. 
  @GTFLGS-I, Hessian will be transformed to curvilinear coordinates.
  There are  218 basis functions.
 @CHECKOUT-I, Total execution time (CPU/WALL):        0.20/       0.56 seconds.
--executable xjoda finished with status     0 in        0.60 seconds (walltime).
 --invoking executable--
/nfs/workspaces/public/cfour_mpi/bin/xvmol
 SERIAL VERSION OF MOLECULE STARTED
********************************************************************************
                    INPUT FROM MOL FILE
********************************************************************************
INTGRL        1    0    1    0    0    0    0    0    0                         
         *** CFOUR Program System (Release V0.1) ***                            
Carbon Monoxide DBOC calculation                                                
    2    2 X  Y       0.10E-08              0    0                              
   9999.00      3.00                                                            
          6.00000000    1    5    1    1    1    1    1                         
C #1  -0.000000000000000   0.000000000000000   1.876209404577751                
   16    9                                                                      
   33980.0000000000       9.100000000000000E-005 -1.900000000000000E-005        
  0.000000000000000E+000  0.000000000000000E+000  0.000000000000000E+000        
  0.000000000000000E+000  0.000000000000000E+000  0.000000000000000E+000        
  0.000000000000000E+000                                                        
   5089.00000000000       7.040000000000000E-004 -1.510000000000000E-004        
  0.000000000000000E+000  0.000000000000000E+000  0.000000000000000E+000        
  0.000000000000000E+000  0.000000000000000E+000  0.000000000000000E+000        
  0.000000000000000E+000                                                        
   1157.00000000000       3.693000000000000E-003 -7.850000000000000E-004        
  0.000000000000000E+000  0.000000000000000E+000  0.000000000000000E+000        
  0.000000000000000E+000  0.000000000000000E+000  0.000000000000000E+000        
  0.000000000000000E+000                                                        
   326.600000000000       1.536000000000000E-002 -3.324000000000000E-003        
  0.000000000000000E+000  0.000000000000000E+000  0.000000000000000E+000        
  0.000000000000000E+000  0.000000000000000E+000  0.000000000000000E+000        
  0.000000000000000E+000                                                        
   106.100000000000       5.292900000000000E-002 -1.151200000000000E-002        
  0.000000000000000E+000  0.000000000000000E+000  0.000000000000000E+000        
  0.000000000000000E+000  0.000000000000000E+000  0.000000000000000E+000        
  0.000000000000000E+000                                                        
   38.1100000000000       0.147043000000000      -3.416000000000000E-002        
  0.000000000000000E+000  0.000000000000000E+000  0.000000000000000E+000        
  0.000000000000000E+000  0.000000000000000E+000  0.000000000000000E+000        
  0.000000000000000E+000                                                        
   14.7500000000000       0.305631000000000      -7.717300000000001E-002        
  0.000000000000000E+000  0.000000000000000E+000  0.000000000000000E+000        
  0.000000000000000E+000  0.000000000000000E+000  0.000000000000000E+000        
  0.000000000000000E+000                                                        
   6.03500000000000       0.399345000000000      -0.141493000000000             
  0.000000000000000E+000  0.000000000000000E+000  0.000000000000000E+000        
  0.000000000000000E+000  0.000000000000000E+000  0.000000000000000E+000        
  0.000000000000000E+000                                                        
   2.53000000000000       0.217051000000000      -0.118019000000000             
  0.000000000000000E+000  0.000000000000000E+000  0.000000000000000E+000        
  0.000000000000000E+000  0.000000000000000E+000  0.000000000000000E+000        
  0.000000000000000E+000                                                        
  0.735500000000000       1.589400000000000E-002  0.273806000000000             
   1.00000000000000       0.000000000000000E+000  0.000000000000000E+000        
  0.000000000000000E+000  0.000000000000000E+000  0.000000000000000E+000        
  0.000000000000000E+000                                                        
  0.290500000000000      -3.084000000000000E-003  0.586510000000000             
  0.000000000000000E+000   1.00000000000000       0.000000000000000E+000        
  0.000000000000000E+000  0.000000000000000E+000  0.000000000000000E+000        
  0.000000000000000E+000                                                        
  0.111100000000000       9.779999999999999E-004  0.285430000000000             
  0.000000000000000E+000  0.000000000000000E+000   1.00000000000000             
  0.000000000000000E+000  0.000000000000000E+000  0.000000000000000E+000        
  0.000000000000000E+000                                                        
   7.21600000000000       0.000000000000000E+000  0.000000000000000E+000        
  0.000000000000000E+000  0.000000000000000E+000  0.000000000000000E+000        
   1.00000000000000       0.000000000000000E+000  0.000000000000000E+000        
  0.000000000000000E+000                                                        
   19.5700000000000       0.000000000000000E+000  0.000000000000000E+000        
  0.000000000000000E+000  0.000000000000000E+000  0.000000000000000E+000        
  0.000000000000000E+000   1.00000000000000       0.000000000000000E+000        
  0.000000000000000E+000                                                        
   53.0730000000000       0.000000000000000E+000  0.000000000000000E+000        
  0.000000000000000E+000  0.000000000000000E+000  0.000000000000000E+000        
  0.000000000000000E+000  0.000000000000000E+000   1.00000000000000             
  0.000000000000000E+000                                                        
  4.145000000000000E-002  0.000000000000000E+000  0.000000000000000E+000        
  0.000000000000000E+000  0.000000000000000E+000  0.000000000000000E+000        
  0.000000000000000E+000  0.000000000000000E+000  0.000000000000000E+000        
   1.00000000000000                                                             
   10    8                                                                      
   34.5100000000000       5.378000000000000E-003  0.000000000000000E+000        
  0.000000000000000E+000  0.000000000000000E+000  0.000000000000000E+000        
  0.000000000000000E+000  0.000000000000000E+000  0.000000000000000E+000        
   7.91500000000000       3.613200000000000E-002  0.000000000000000E+000        
  0.000000000000000E+000  0.000000000000000E+000  0.000000000000000E+000        
  0.000000000000000E+000  0.000000000000000E+000  0.000000000000000E+000        
   2.36800000000000       0.142493000000000       0.000000000000000E+000        
  0.000000000000000E+000  0.000000000000000E+000  0.000000000000000E+000        
  0.000000000000000E+000  0.000000000000000E+000  0.000000000000000E+000        
  0.813200000000000       0.342150000000000        1.00000000000000             
  0.000000000000000E+000  0.000000000000000E+000  0.000000000000000E+000        
  0.000000000000000E+000  0.000000000000000E+000  0.000000000000000E+000        
  0.289000000000000       0.463864000000000       0.000000000000000E+000        
   1.00000000000000       0.000000000000000E+000  0.000000000000000E+000        
  0.000000000000000E+000  0.000000000000000E+000  0.000000000000000E+000        
  0.100700000000000       0.250028000000000       0.000000000000000E+000        
  0.000000000000000E+000   1.00000000000000       0.000000000000000E+000        
  0.000000000000000E+000  0.000000000000000E+000  0.000000000000000E+000        
   8.18200000000000       0.000000000000000E+000  0.000000000000000E+000        
  0.000000000000000E+000  0.000000000000000E+000   1.00000000000000             
  0.000000000000000E+000  0.000000000000000E+000  0.000000000000000E+000        
   24.1860000000000       0.000000000000000E+000  0.000000000000000E+000        
  0.000000000000000E+000  0.000000000000000E+000  0.000000000000000E+000        
   1.00000000000000       0.000000000000000E+000  0.000000000000000E+000        
   71.4940000000000       0.000000000000000E+000  0.000000000000000E+000        
  0.000000000000000E+000  0.000000000000000E+000  0.000000000000000E+000        
  0.000000000000000E+000   1.00000000000000       0.000000000000000E+000        
  3.218000000000000E-002  0.000000000000000E+000  0.000000000000000E+000        
  0.000000000000000E+000  0.000000000000000E+000  0.000000000000000E+000        
  0.000000000000000E+000  0.000000000000000E+000   1.00000000000000             
    6    6                                                                      
   1.84800000000000        1.00000000000000       0.000000000000000E+000        
  0.000000000000000E+000  0.000000000000000E+000  0.000000000000000E+000        
  0.000000000000000E+000                                                        
  0.649000000000000       0.000000000000000E+000   1.00000000000000             
  0.000000000000000E+000  0.000000000000000E+000  0.000000000000000E+000        
  0.000000000000000E+000                                                        
  0.228000000000000       0.000000000000000E+000  0.000000000000000E+000        
   1.00000000000000       0.000000000000000E+000  0.000000000000000E+000        
  0.000000000000000E+000                                                        
   8.65600000000000       0.000000000000000E+000  0.000000000000000E+000        
  0.000000000000000E+000   1.00000000000000       0.000000000000000E+000        
  0.000000000000000E+000                                                        
   33.2130000000000       0.000000000000000E+000  0.000000000000000E+000        
  0.000000000000000E+000  0.000000000000000E+000   1.00000000000000             
  0.000000000000000E+000                                                        
  7.660000000000000E-002  0.000000000000000E+000  0.000000000000000E+000        
  0.000000000000000E+000  0.000000000000000E+000  0.000000000000000E+000        
   1.00000000000000                                                             
    4    4                                                                      
   1.41900000000000        1.00000000000000       0.000000000000000E+000        
  0.000000000000000E+000  0.000000000000000E+000                                
  0.485000000000000       0.000000000000000E+000   1.00000000000000             
  0.000000000000000E+000  0.000000000000000E+000                                
   24.6940000000000       0.000000000000000E+000  0.000000000000000E+000        
   1.00000000000000       0.000000000000000E+000                                
  0.187000000000000       0.000000000000000E+000  0.000000000000000E+000        
  0.000000000000000E+000   1.00000000000000                                     
    2    2                                                                      
   1.01100000000000        1.00000000000000       0.000000000000000E+000        
  0.424000000000000       0.000000000000000E+000   1.00000000000000             
          8.00000000    1    5    1    1    1    1    1                         
O #2   0.000000000000000   0.000000000000000  -1.525298332624029                
   16    9                                                                      
   61420.0000000000       9.000000000000001E-005 -2.000000000000000E-005        
  0.000000000000000E+000  0.000000000000000E+000  0.000000000000000E+000        
  0.000000000000000E+000  0.000000000000000E+000  0.000000000000000E+000        
  0.000000000000000E+000                                                        
   9199.00000000000       6.980000000000001E-004 -1.590000000000000E-004        
  0.000000000000000E+000  0.000000000000000E+000  0.000000000000000E+000        
  0.000000000000000E+000  0.000000000000000E+000  0.000000000000000E+000        
  0.000000000000000E+000                                                        
   2091.00000000000       3.664000000000000E-003 -8.290000000000000E-004        
  0.000000000000000E+000  0.000000000000000E+000  0.000000000000000E+000        
  0.000000000000000E+000  0.000000000000000E+000  0.000000000000000E+000        
  0.000000000000000E+000                                                        
   590.900000000000       1.521800000000000E-002 -3.508000000000000E-003        
  0.000000000000000E+000  0.000000000000000E+000  0.000000000000000E+000        
  0.000000000000000E+000  0.000000000000000E+000  0.000000000000000E+000        
  0.000000000000000E+000                                                        
   192.300000000000       5.242300000000000E-002 -1.215600000000000E-002        
  0.000000000000000E+000  0.000000000000000E+000  0.000000000000000E+000        
  0.000000000000000E+000  0.000000000000000E+000  0.000000000000000E+000        
  0.000000000000000E+000                                                        
   69.3200000000000       0.145921000000000      -3.626100000000000E-002        
  0.000000000000000E+000  0.000000000000000E+000  0.000000000000000E+000        
  0.000000000000000E+000  0.000000000000000E+000  0.000000000000000E+000        
  0.000000000000000E+000                                                        
   26.9700000000000       0.305258000000000      -8.299200000000000E-002        
  0.000000000000000E+000  0.000000000000000E+000  0.000000000000000E+000        
  0.000000000000000E+000  0.000000000000000E+000  0.000000000000000E+000        
  0.000000000000000E+000                                                        
   11.1000000000000       0.398508000000000      -0.152090000000000             
  0.000000000000000E+000  0.000000000000000E+000  0.000000000000000E+000        
  0.000000000000000E+000  0.000000000000000E+000  0.000000000000000E+000        
  0.000000000000000E+000                                                        
   4.68200000000000       0.216980000000000      -0.115331000000000             
  0.000000000000000E+000  0.000000000000000E+000  0.000000000000000E+000        
  0.000000000000000E+000  0.000000000000000E+000  0.000000000000000E+000        
  0.000000000000000E+000                                                        
   1.42800000000000       1.759400000000000E-002  0.288979000000000             
   1.00000000000000       0.000000000000000E+000  0.000000000000000E+000        
  0.000000000000000E+000  0.000000000000000E+000  0.000000000000000E+000        
  0.000000000000000E+000                                                        
  0.554700000000000      -2.502000000000000E-003  0.586128000000000             
  0.000000000000000E+000   1.00000000000000       0.000000000000000E+000        
  0.000000000000000E+000  0.000000000000000E+000  0.000000000000000E+000        
  0.000000000000000E+000                                                        
  0.206700000000000       9.540000000000000E-004  0.277624000000000             
  0.000000000000000E+000  0.000000000000000E+000   1.00000000000000             
  0.000000000000000E+000  0.000000000000000E+000  0.000000000000000E+000        
  0.000000000000000E+000                                                        
   12.9740000000000       0.000000000000000E+000  0.000000000000000E+000        
  0.000000000000000E+000  0.000000000000000E+000  0.000000000000000E+000        
   1.00000000000000       0.000000000000000E+000  0.000000000000000E+000        
  0.000000000000000E+000                                                        
   34.9000000000000       0.000000000000000E+000  0.000000000000000E+000        
  0.000000000000000E+000  0.000000000000000E+000  0.000000000000000E+000        
  0.000000000000000E+000   1.00000000000000       0.000000000000000E+000        
  0.000000000000000E+000                                                        
   93.8810000000000       0.000000000000000E+000  0.000000000000000E+000        
  0.000000000000000E+000  0.000000000000000E+000  0.000000000000000E+000        
  0.000000000000000E+000  0.000000000000000E+000   1.00000000000000             
  0.000000000000000E+000                                                        
  6.959000000000000E-002  0.000000000000000E+000  0.000000000000000E+000        
  0.000000000000000E+000  0.000000000000000E+000  0.000000000000000E+000        
  0.000000000000000E+000  0.000000000000000E+000  0.000000000000000E+000        
   1.00000000000000                                                             
   10    8                                                                      
   63.4200000000000       6.044000000000000E-003  0.000000000000000E+000        
  0.000000000000000E+000  0.000000000000000E+000  0.000000000000000E+000        
  0.000000000000000E+000  0.000000000000000E+000  0.000000000000000E+000        
   14.6600000000000       4.179900000000000E-002  0.000000000000000E+000        
  0.000000000000000E+000  0.000000000000000E+000  0.000000000000000E+000        
  0.000000000000000E+000  0.000000000000000E+000  0.000000000000000E+000        
   4.45900000000000       0.161143000000000       0.000000000000000E+000        
  0.000000000000000E+000  0.000000000000000E+000  0.000000000000000E+000        
  0.000000000000000E+000  0.000000000000000E+000  0.000000000000000E+000        
   1.53100000000000       0.356731000000000        1.00000000000000             
  0.000000000000000E+000  0.000000000000000E+000  0.000000000000000E+000        
  0.000000000000000E+000  0.000000000000000E+000  0.000000000000000E+000        
  0.530200000000000       0.448309000000000       0.000000000000000E+000        
   1.00000000000000       0.000000000000000E+000  0.000000000000000E+000        
  0.000000000000000E+000  0.000000000000000E+000  0.000000000000000E+000        
  0.175000000000000       0.244940000000000       0.000000000000000E+000        
  0.000000000000000E+000   1.00000000000000       0.000000000000000E+000        
  0.000000000000000E+000  0.000000000000000E+000  0.000000000000000E+000        
   14.4750000000000       0.000000000000000E+000  0.000000000000000E+000        
  0.000000000000000E+000  0.000000000000000E+000   1.00000000000000             
  0.000000000000000E+000  0.000000000000000E+000  0.000000000000000E+000        
   42.7300000000000       0.000000000000000E+000  0.000000000000000E+000        
  0.000000000000000E+000  0.000000000000000E+000  0.000000000000000E+000        
   1.00000000000000       0.000000000000000E+000  0.000000000000000E+000        
   126.140000000000       0.000000000000000E+000  0.000000000000000E+000        
  0.000000000000000E+000  0.000000000000000E+000  0.000000000000000E+000        
  0.000000000000000E+000   1.00000000000000       0.000000000000000E+000        
  5.348000000000000E-002  0.000000000000000E+000  0.000000000000000E+000        
  0.000000000000000E+000  0.000000000000000E+000  0.000000000000000E+000        
  0.000000000000000E+000  0.000000000000000E+000   1.00000000000000             
    6    6                                                                      
   3.77500000000000        1.00000000000000       0.000000000000000E+000        
  0.000000000000000E+000  0.000000000000000E+000  0.000000000000000E+000        
  0.000000000000000E+000                                                        
   1.30000000000000       0.000000000000000E+000   1.00000000000000             
  0.000000000000000E+000  0.000000000000000E+000  0.000000000000000E+000        
  0.000000000000000E+000                                                        
  0.444000000000000       0.000000000000000E+000  0.000000000000000E+000        
   1.00000000000000       0.000000000000000E+000  0.000000000000000E+000        
  0.000000000000000E+000                                                        
   14.9270000000000       0.000000000000000E+000  0.000000000000000E+000        
  0.000000000000000E+000   1.00000000000000       0.000000000000000E+000        
  0.000000000000000E+000                                                        
   57.5440000000000       0.000000000000000E+000  0.000000000000000E+000        
  0.000000000000000E+000  0.000000000000000E+000   1.00000000000000             
  0.000000000000000E+000                                                        
  0.154000000000000       0.000000000000000E+000  0.000000000000000E+000        
  0.000000000000000E+000  0.000000000000000E+000  0.000000000000000E+000        
   1.00000000000000                                                             
    4    4                                                                      
   2.66600000000000        1.00000000000000       0.000000000000000E+000        
  0.000000000000000E+000  0.000000000000000E+000                                
  0.859000000000000       0.000000000000000E+000   1.00000000000000             
  0.000000000000000E+000  0.000000000000000E+000                                
   26.4830000000000       0.000000000000000E+000  0.000000000000000E+000        
   1.00000000000000       0.000000000000000E+000                                
  0.324000000000000       0.000000000000000E+000  0.000000000000000E+000        
  0.000000000000000E+000   1.00000000000000                                     
    2    2                                                                      
   1.84600000000000        1.00000000000000       0.000000000000000E+000        
  0.714000000000000       0.000000000000000E+000   1.00000000000000             
FINISH                                                                          
 
********************************************************************************
 ONE- AND TWO-ELECTRON INTEGRALS OVER SYMMETRY-ADAPTED AOS ARE CALCULATED.

  SPHERICAL HARMONICS ARE USED.
  
  INTEGRALS LESS THAN  0.10E-13 ARE NEGLECTED.

  NUCLEAR REPULSION ENERGY :   14.1113893333 A.U.
  @MOLECU-I, ONE ELECTRON INTEGRALS (CPU/WALL):        0.09/       0.12 SECONDS.
  @TWOEL-I,    4349471 INTEGRALS OF SYMMETRY TYPE  I I I I
  @TWOEL-I,   18763779 INTEGRALS OF SYMMETRY TYPE  I J I J
  @TWOEL-I,    9883543 INTEGRALS OF SYMMETRY TYPE  I I J J
  @TWOEL-I,   13837210 INTEGRALS OF SYMMETRY TYPE  I J K L
  @TWOEL-I, TOTAL NUMBER OF 2-E INTEGRALS   46834003.
  @MOLECU-I, TWO ELECTRON INTEGRALS (CPU/WALL):      264.25/      52.69 SECONDS.
 @CHECKOUT-I, Total execution time (CPU/WALL):      264.34/      52.83 seconds.

Running with 14 threads/proc

--executable xvmol finished with status     0 in       52.87 seconds (walltime).
 --invoking executable--
/nfs/workspaces/public/cfour_mpi/bin/xvmol2ja
 @GETMEM-I,  Allocated    3814 MB of main memory.
 @CHECKOUT-I, Total execution time (CPU/WALL):        0.26/       0.10 seconds.
--executable xvmol2ja finished with status     0 in        0.15 seconds (walltime).
 --invoking executable--
/nfs/workspaces/public/cfour_mpi/bin/xvprop
 @GETMEM-I,  Allocated    3814 MB of main memory.
   Property integrals will be calculated.
    --------------------------------------------------------------
                                   Property evaluated at 
    Property type                X             Y             Z
    --------------------------------------------------------------
    Dipole moment               ----          ----          ----  
    Quadrupole moment           ----          ----          ----  
    Octopole moment             ----          ----          ----  
    Relativisitic corr.         ----          ----          ----  
    Second moment            0.0000000     0.0000000     0.0000000
    Electron density         0.0000000     0.0000000     1.8762094
    Electron density         0.0000000     0.0000000    -1.5252983
    Field gradient           0.0000000     0.0000000     1.8762094
    Field gradient           0.0000000     0.0000000    -1.5252983
    Potential                0.0000000     0.0000000     1.8762094
    Potential                0.0000000     0.0000000    -1.5252983
    --------------------------------------------------------------
 @CHECKOUT-I, Total execution time (CPU/WALL):        1.73/       2.43 seconds.
--executable xvprop finished with status     0 in        2.48 seconds (walltime).
 --invoking executable--
/nfs/workspaces/public/cfour_mpi/bin/xvscf
  There are  218 functions in the AO basis.

  There are 4 irreducible representations.

       Irrep        # of functions
         1                 86
         2                 52
         3                 52
         4                 28


  Parameters for SCF calculation: 
        SCF reference function:  RHF  
  Maximum number of iterations:  150
     Full symmetry point group: CXv 
     Computational point group: C2v 
        Initial density matrix: MOREAD                 
     SCF convergence tolerance: 10**(-10)
  DIIS convergence acceleration:  ON
          Latest start for DIIS:   8
                     DIIS order:   6

  Memory information:    2523578 words required.
  Fock matrices are constructed from AO integral file.
 @GETMEM-I,  Allocated      19 MB of main memory.
  Initialization and symmetry analysis required      0.001 seconds.

  Adding electric field perturbation to one-electron Hamiltonian.
  Field direction     : Z
  Field strength      : -0.0002000 a.u.

  @INITGES-I, Occupancies from core Hamiltonian:

          Alpha population by irrep:   5    1    1    0
           Beta population by irrep:   5    1    1    0


 total no. of electrons in initial guess :  0.000000000000000E+000
  --------------------------------------------------------------------
  Iteration         Total Energy            Largest Density Difference
  --------------------------------------------------------------------
       0            14.111200307287104              0.0000000000D+00
   current occupation vector 
     5  1  1  0
     5  1  1  0
       1           -93.759522059445601              0.1756632502D+02
   current occupation vector 
     5  1  1  0
     5  1  1  0
       2           -97.513167950921812              0.1756632093D+02
   current occupation vector 
     5  1  1  0
     5  1  1  0
       3           -99.665804732842474              0.7018723365D+01
   current occupation vector 
     5  1  1  0
     5  1  1  0
       4           -94.003407401809838              0.7017449917D+01
   current occupation vector 
     5  1  1  0
     5  1  1  0
       5           -99.693749838672062              0.7081414836D+01
   current occupation vector 
     5  1  1  0
     5  1  1  0
       6           -93.919402000392751              0.7081395104D+01
   current occupation vector 
     5  1  1  0
     5  1  1  0
       7           -99.692176546238642              0.7083902747D+01
   current occupation vector 
     5  1  1  0
     5  1  1  0
       8           -93.917636197274078              0.7083902712D+01
   current occupation vector 
     5  1  1  0
     5  1  1  0
       9          -106.490194321438878              0.6162407214D+01
   current occupation vector 
     5  1  1  0
     5  1  1  0
      10          -110.484852639267913              0.1427644852D+01
   current occupation vector 
     5  1  1  0
     5  1  1  0
      11          -112.043360374114926              0.9092923363D+00
   current occupation vector 
     5  1  1  0
     5  1  1  0
      12          -112.209562769436616              0.8242002351D+00
   current occupation vector 
     5  1  1  0
     5  1  1  0
      13          -112.379376034304812              0.1756585497D+00
   current occupation vector 
     5  1  1  0
     5  1  1  0
      14          -112.422000026676130              0.1836548707D+00
   current occupation vector 
     5  1  1  0
     5  1  1  0
      15          -112.424691204116542              0.6445672551D-01
   current occupation vector 
     5  1  1  0
     5  1  1  0
      16          -112.428056088791706              0.1097081698D+00
   current occupation vector 
     5  1  1  0
     5  1  1  0
      17          -112.430939862756887              0.1400030167D+00
   current occupation vector 
     5  1  1  0
     5  1  1  0
      18          -112.431580051852904              0.8360126359D-01
   current occupation vector 
     5  1  1  0
     5  1  1  0
      19          -112.431581832191569              0.8183611777D-02
   current occupation vector 
     5  1  1  0
     5  1  1  0
      20          -112.431583702052080              0.6277250308D-02
   current occupation vector 
     5  1  1  0
     5  1  1  0
      21          -112.431583787446996              0.1430327697D-02
   current occupation vector 
     5  1  1  0
     5  1  1  0
      22          -112.431583795705734              0.3571783899D-03
   current occupation vector 
     5  1  1  0
     5  1  1  0
      23          -112.431583795731441              0.1080542307D-04
   current occupation vector 
     5  1  1  0
     5  1  1  0
      24          -112.431583795730205              0.4702676540D-05
   current occupation vector 
     5  1  1  0
     5  1  1  0
      25          -112.431583795731569              0.1429526287D-05
   current occupation vector 
     5  1  1  0
     5  1  1  0
      26          -112.431583795731441              0.8117318524D-06
   current occupation vector 
     5  1  1  0
     5  1  1  0
      27          -112.431583795731854              0.1720656391D-06
   current occupation vector 
     5  1  1  0
     5  1  1  0
      28          -112.431583795731214              0.4813167820D-07
   current occupation vector 
     5  1  1  0
     5  1  1  0
      29          -112.431583795732038              0.3775989965D-08
   current occupation vector 
     5  1  1  0
     5  1  1  0
      30          -112.431583795731697              0.1695007024D-08
   current occupation vector 
     5  1  1  0
     5  1  1  0

  SCF has converged.

 Density matrix saved to file den.dat
 total electron number:   14.0000000000002     
     E(SCF)=      -112.431583795731981              0.9278044999D-10

  Eigenvector printing suppressed.

 @PUTMOS-I, Writing converged MOs to NEWMOS. 
 @PUTMOS-I, Symmetry   1 Full Blocks 21 Partial Blocksize   2
 @PUTMOS-I, Symmetry   2 Full Blocks 13 Partial Blocksize   0
 @PUTMOS-I, Symmetry   3 Full Blocks 13 Partial Blocksize   0
 @PUTMOS-I, Symmetry   4 Full Blocks  7 Partial Blocksize   0
 @PUTFOCK-I, Writing converged Fock matrix to NEWFOCK. 
 @PUTFOCK-I, Symmetry   1 Full Blocks 21 Partial Blocksize   2
 @PUTFOCK-I, Symmetry   2 Full Blocks 13 Partial Blocksize   0
 @PUTFOCK-I, Symmetry   3 Full Blocks 13 Partial Blocksize   0
 @PUTFOCK-I, Symmetry   4 Full Blocks  7 Partial Blocksize   0


 
  ORBITAL EIGENVALUES (ALPHA)  (1H = 27.2113834 eV)

       MO #        E(hartree)               E(eV)           FULLSYM    COMPSYM
       ----   --------------------   --------------------   -------   ---------
    1     1         -20.6208265014        -561.1212159555     SG+        A1 (1)
    2     2         -11.5320050148        -313.8018098292     SG+        A1 (1)
    3     3          -1.2189265081         -33.1686765485     SG+        A1 (1)
    4     4          -0.8139266912         -22.1480712539     SG+        A1 (1)
    5     5          -0.4816684673         -13.1068653355     SG+        A1 (1)
    6   139          -0.4768347192         -12.9753323621      PI        B2 (3)
    7    87          -0.4768347192         -12.9753323621      PI        B1 (2)
  +++++++++++++++++++++++++++++++++++++++++++++++++++++++++++++++++++++++++++++
    8   140          -0.0286255760          -0.7789415226      PI        B2 (3)
    9    88          -0.0286255760          -0.7789415226      PI        B1 (2)
   10     6           0.0553643250           1.5065398732     SG+        A1 (1)
   11     7           0.0689724230           1.8768350450     SG+        A1 (1)
   12   141           0.0805915145           2.1930066011      PI        B2 (3)
   13    89           0.0805915145           2.1930066011      PI        B1 (2)
   14     8           0.1423755585           3.8742359102     SG+        A1 (1)
   15     9           0.1618438958           4.4039962993     SG+        A1 (1)
   16    90           0.1848737209           5.0306697007      PI        B1 (2)
   17   142           0.1848737209           5.0306697007      PI        B2 (3)
   18   191           0.2183065389           5.9404229280      DE        A2 (4)
   19    10           0.2183065389           5.9404229280      DE        A1 (1)
   20   143           0.2773665803           7.5475283581      PI        B2 (3)
   21    91           0.2773665803           7.5475283581      PI        B1 (2)
   22    11           0.2839316923           7.7261741381     SG+        A1 (1)
   23    12           0.3065790667           8.3424405271     SG+        A1 (1)
   24    13           0.4073736768          11.0852013054     SG+        A1 (1)
   25   144           0.4124342199          11.2229056862      PI        B2 (3)
   26    92           0.4124342199          11.2229056862      PI        B1 (2)
   27    14           0.5177718946          14.0892895388     SG+        A1 (1)
   28    15           0.5503612677          14.9760914641      DE        A1 (1)
   29   192           0.5503612677          14.9760914641      DE        A2 (4)
   30   145           0.6252739581          17.0145694029      PI        B2 (3)
   31    93           0.6252739581          17.0145694029      PI        B1 (2)
   32    16           0.6954728838          18.9247792852     SG+        A1 (1)
   33   146           0.7220407313          19.6477271712      PH        B2 (3)
   34    94           0.7220407313          19.6477271712      PH        B1 (2)
   35   193           0.7290848881          19.8394084214      DE        A2 (4)
   36    17           0.7290848881          19.8394084214      DE        A1 (1)
   37   147           0.7639186714          20.7872838548      PI        B2 (3)
   38    95           0.7639186714          20.7872838548      PI        B1 (2)
   39    18           0.8003421142          21.7784161195     SG+        A1 (1)
   40    19           0.8414022764          22.8957199378      DE        A1 (1)
   41   194           0.8414022764          22.8957199378      DE        A2 (4)
   42   148           0.8522212509          23.1901192004      PI        B2 (3)
   43    96           0.8522212509          23.1901192004      PI        B1 (2)
   44    20           0.9171481287          24.9568693643     SG+        A1 (1)
   45   149           1.0636624236          28.9437260155      PI        B2 (3)
   46    97           1.0636624236          28.9437260155      PI        B1 (2)
   47    21           1.1605153109          31.5792270657     SG+        A1 (1)
   48    22           1.2999528981          35.3735167129     SG+        A1 (1)
   49   150           1.4174086769          38.5696509421      PH        B2 (3)
   50    98           1.4174086769          38.5696509421      PH        B1 (2)
   51   151           1.4440312322          39.2940875007      PI        B2 (3)
   52    99           1.4440312322          39.2940875007      PI        B1 (2)
   53    23           1.5763707899          42.8952299447     SG+        A1 (1)
   54   195           1.5808738814          43.0177652950      DE        A2 (4)
   55    24           1.5808738814          43.0177652950      DE        A1 (1)
   56   152           1.6431018571          44.7110745994      PI        B2 (3)
   57   100           1.6431018571          44.7110745994      PI        B1 (2)
   58   196           1.6525019335          44.9668636823      DE        A2 (4)
   59    25           1.6525019335          44.9668636823      DE        A1 (1)
   60    26           1.8164296262          49.4275629769     SG+        A1 (1)
   61    27           1.9238185642          52.3497645424     SG+        A1 (1)
   62   153           1.9860495902          54.0431568512      PI        B2 (3)
   63   101           1.9860495902          54.0431568512      PI        B1 (2)
   64   197           2.0508260113          55.8058128803      PI        A2 (4)
   65    28           2.0508260113          55.8058128803      PI        A1 (1)
   66   198           2.1107106035          57.4353554786      DE        A2 (4)
   67    29           2.1107106035          57.4353554786      DE        A1 (1)
   68   154           2.1491456068          58.4812250880      PH        B2 (3)
   69   102           2.1491456068          58.4812250880      PH        B1 (2)
   70   103           2.1913691250          59.6301854326      PH        B1 (2)
   71   155           2.1913691250          59.6301854326      PH        B2 (3)
   72   156           2.1919031199          59.6447161703      PI        B2 (3)
   73   104           2.1919031199          59.6447161703      PI        B1 (2)
   74    30           2.2256471071          60.5629367445     SG+        A1 (1)
   75   199           2.2609032888          61.5223062209      DE        A2 (4)
   76    31           2.2609032888          61.5223062209      DE        A1 (1)
   77    32           2.3455077238          63.8245099387     SG+        A1 (1)
   78   157           2.4440857554          66.5069545528      PI        B2 (3)
   79   105           2.4440857554          66.5069545528      PI        B1 (2)
   80   200           2.5076695654          68.2371579837      DE        A2 (4)
   81    33           2.5076695654          68.2371579837      DE        A1 (1)
   82    34           2.6115698452          71.0644283331     SG+        A1 (1)
   83   158           2.6722957331          72.7168637511      PI        B2 (3)
   84   106           2.6722957331          72.7168637511      PI        B1 (2)
   85    35           2.8019553422          76.2450810856     SG+        A1 (1)
   86   159           3.1857491503          86.6886415441      PI        B2 (3)
   87   107           3.1857491503          86.6886415441      PI        B1 (2)
   88    36           3.7034188387         100.7751499114     SG+        A1 (1)
   89    37           3.7288581369         101.4673884076      PI        A1 (1)
   90   201           3.7288581369         101.4673884076      PI        A2 (4)
   91   108           3.8349018571         104.3529847343      PH        B1 (2)
   92   160           3.8349018571         104.3529847343      PH        B2 (3)
   93    38           4.0537026764         110.3068577182     SG+        A1 (1)
   94   202           4.1000784844         111.5688076092      DE        A2 (4)
   95    39           4.1000784844         111.5688076092      DE        A1 (1)
   96   161           4.1236436881         112.2100494029      PI        B2 (3)
   97   109           4.1236436881         112.2100494029      PI        B1 (2)
   98   162           4.1583390548         113.1541583262      PH        B2 (3)
   99   110           4.1583390548         113.1541583262      PH        B1 (2)
  100    40           4.2694318607         116.1771472610     SG+        A1 (1)
  101   203           4.3140006395         117.3899253905      DE        A2 (4)
  102    41           4.3140006395         117.3899253905      DE        A1 (1)
  103   163           4.4454150404         120.9658930377      PI        B2 (3)
  104   111           4.4454150404         120.9658930377      PI        B1 (2)
  105   204           4.5253261548         123.1403850077      DE        A2 (4)
  106    42           4.5253261548         123.1403850077      DE        A1 (1)
  107    43           4.7984632584         130.5728234552     SG+        A1 (1)
  108   164           4.9433096091         134.5142930387      PI        B2 (3)
  109   112           4.9433096091         134.5142930387      PI        B1 (2)
  110    44           5.1199026237         139.3196332633     SG+        A1 (1)
  111   165           5.3456922532         145.4636814403      PI        B2 (3)
  112   113           5.3456922532         145.4636814403      PI        B1 (2)
  113   205           5.8000437366         157.8272138544      PI        A2 (4)
  114    45           5.8000437366         157.8272138544      PI        A1 (1)
  115   166           5.8724665567         159.7979389786      PH        B2 (3)
  116   114           5.8724665567         159.7979389786      PH        B1 (2)
  117    46           5.8727278363         159.8050487582     SG+        A1 (1)
  118   206           6.0095917141         163.5293042110      DE        A2 (4)
  119    47           6.0095917141         163.5293042110      DE        A1 (1)
  120   115           6.0907285069         165.7371485864      PI        B1 (2)
  121   167           6.0907285069         165.7371485864      PI        B2 (3)
  122    48           6.1079755461         166.2064643824     SG+        A1 (1)
  123   207           6.2267667809         169.4389382172      DE        A2 (4)
  124    49           6.2267667809         169.4389382172      DE        A1 (1)
  125   168           6.3250729607         172.1139853678      PH        B2 (3)
  126   116           6.3250729607         172.1139853678      PH        B1 (2)
  127   208           6.4482418055         175.4655800262      DE        A2 (4)
  128    50           6.4482418055         175.4655800262      DE        A1 (1)
  129   169           6.6280911398         180.3595292149      PI        B2 (3)
  130   117           6.6280911398         180.3595292149      PI        B1 (2)
  131   170           6.8622617590         186.7316357159      PI        B2 (3)
  132   118           6.8622617590         186.7316357159      PI        B1 (2)
  133    51           6.9998474846         190.4755336447     SG+        A1 (1)
  134    52           7.3049864749         198.7787877006     SG+        A1 (1)
  135    53           9.1842418832         249.9159271222     SG+        A1 (1)
  136   119           9.5440228214         259.7060641703      PI        B1 (2)
  137   171           9.5440228214         259.7060641704      PI        B2 (3)
  138    54          10.5851318542         288.0360812250     SG+        A1 (1)
  139   209          10.6965361958         291.0675474753      PI        A2 (4)
  140    55          10.6965361958         291.0675474753      PI        A1 (1)
  141   120          10.7198712174         291.7025256966      PH        B1 (2)
  142   172          10.7198712174         291.7025256966      PH        B2 (3)
  143   210          10.8868575506         296.2464548294      DE        A2 (4)
  144    56          10.8868575506         296.2464548295      DE        A1 (1)
  145   173          11.0075820737         299.5315361157      PI        B2 (3)
  146   121          11.0075820737         299.5315361157      PI        B1 (2)
  147    57          11.0403701912         300.4237461509     SG+        A1 (1)
  148   174          11.9300987145         324.6344901208      PH        B2 (3)
  149   122          11.9300987145         324.6344901208      PH        B1 (2)
  150   211          11.9697450619         325.7133220798      DE        A2 (4)
  151    58          11.9697450619         325.7133220799      DE        A1 (1)
  152   175          12.1129763432         329.6108433898      PI        B1 (3)
  153   123          12.1129763432         329.6108433898      PI        B2 (2)
  154    59          12.3856685457         337.0311754620     SG+        A1 (1)
  155   212          12.7263479691         346.3015338684      DE        A2 (4)
  156    60          12.7263479691         346.3015338684      DE        A1 (1)
  157   176          13.0564928048         355.2852315700      PI        B2 (3)
  158   124          13.0564928048         355.2852315701      PI        B1 (2)
  159    61          13.2883591723         361.5946361942     SG+        A1 (1)
  160    62          17.0879992100         464.9880980417     SG+        A1 (1)
  161   125          18.6394257149         507.2045594838      PI        B1 (2)
  162   177          18.6394257149         507.2045594838      PI        B2 (3)
  163    63          19.2762653908         524.5338480689     SG+        A1 (1)
  164   213          26.2296147840         713.7441043226      DE        A2 (4)
  165    64          26.2296147840         713.7441043226      DE        A1 (1)
  166   178          26.3985521350         718.3411233503      PI        B2 (3)
  167   126          26.3985521350         718.3411233503      PI        B1 (2)
  168    65          26.7730511555         728.5317597798     SG+        A1 (1)
  169   127          33.2994103279         906.1230214260      PI        B1 (2)
  170   179          33.2994103279         906.1230214264      PI        B2 (3)
  171    66          33.9866746072         924.8244332273     SG+        A1 (1)
  172    67          35.4761641639         965.3555046249     SG+        A1 (1)
  173    68          47.0923988902        1281.4493214275      DE        A1 (1)
  174   214          47.0923988902        1281.4493214275      DE        A2 (4)
  175   180          47.2463620945        1285.6388732094      PI        B2 (3)
  176   128          47.2463620945        1285.6388732094      PI        B1 (2)
  177    69          47.3761847869        1289.1715282660     SG+        A1 (1)
  178    70          63.5646873460        1729.6830780740     SG+        A1 (1)
  179   129          66.2417990302        1802.5309905171      PI        B1 (2)
  180   181          66.2417990302        1802.5309905171      PI        B2 (3)
  181    71          66.7225333392        1815.6124361135     SG+        A1 (1)
  182   182          98.4932065096        2680.1364046273      PH        B2 (3)
  183   130          98.4932065096        2680.1364046273      PH        B1 (2)
  184   215          98.5102298899        2680.5996343569      DE        A2 (4)
  185    72          98.5102298899        2680.5996343569      DE        A1 (1)
  186   131          98.5256790482        2681.0200273256      PI        B1 (2)
  187   183          98.5256790482        2681.0200273256      PI        B2 (3)
  188    73          98.5315285554        2681.1792005092     SG+        A1 (1)
  189   132         103.3309603479        2811.7783791163      PI        B1 (2)
  190   184         103.3309603479        2811.7783791163      PI        B2 (3)
  191    74         103.3317700562        2811.8004124006      DE        A1 (1)
  192   216         103.3317700563        2811.8004124031      DE        A2 (4)
  193    75         103.3417121938        2812.0709517184     SG+        A1 (1)
  194   185         103.3500231754        2812.2971050239      PH        B2 (3)
  195   133         103.3500231754        2812.2971050239      PH        B1 (2)
  196   217         114.9423328644        3127.7398884641      DE        A2 (4)
  197    76         114.9423328644        3127.7398884641      DE        A1 (1)
  198   186         115.0253847007        3129.9998438240      PI        B2 (3)
  199   134         115.0253847007        3129.9998438240      PI        B1 (2)
  200    77         115.1845132203        3134.3299509796     SG+        A1 (1)
  201   135         116.6306968720        3173.6826087928      PI        B1 (2)
  202   187         116.6306968720        3173.6826087932      PI        B2 (3)
  203    78         117.2229134620        3189.7976414788     SG+        A1 (1)
  204    79         121.7316145279        3312.4856348203     SG+        A1 (1)
  205   218         198.5783232273        5403.5908882673      DE        A2 (4)
  206    80         198.5783232273        5403.5908882673      DE        A1 (1)
  207   188         198.6619383577        5405.8661716375      PI        B2 (3)
  208   136         198.6619383577        5405.8661716375      PI        B1 (2)
  209    81         198.7319185734        5407.7704301190     SG+        A1 (1)
  210    82         216.1090214664        5880.6254393223     SG+        A1 (1)
  211   137         224.7362514081        6115.3843009433      PI        B1 (2)
  212   189         224.7362514081        6115.3843009433      PI        B2 (3)
  213    83         225.1141169268        6125.6665444472     SG+        A1 (1)
  214   138         395.1924753937       10753.7339647341      PI        B1 (2)
  215   190         395.1924753938       10753.7339647347      PI        B2 (3)
  216    84         395.6509262306       10766.2090462258     SG+        A1 (1)
  217    85         508.4973449434       13836.9162111356     SG+        A1 (1)
  218    86         894.9205929705       24352.0273678766     SG+        A1 (1)


  VSCF finished.

 @CHECKOUT-I, Total execution time (CPU/WALL):       43.06/      17.66 seconds.
--executable xvscf finished with status     0 in       17.69 seconds (walltime).
 --invoking executable--
/nfs/workspaces/public/cfour_mpi/bin/xvtran
 @GETMEM-I,  Allocated    3814 MB of main memory.
  Full RHF integral transformation
  Transformation of IIII integrals :
  1 pass through the AO integral file was required.
     4349471 AO integrals were read.
     8465285 MO integrals were written to HF2.
  Transformation of IIJJ integrals :
  1 pass through the AO integral file was required.
     9883543 AO integrals were read.
    14213122 MO integrals were written to HF2.
  Transformation of IJIJ integrals :
  1 pass through the AO integral file was required.
    18763779 AO integrals were read.
    26280732 MO integrals were written to HF2.
  Transformation of IJKL integrals :
  1 pass through the AO integral file was required.
    13837210 AO integrals were read.
    17855536 MO integrals were written to HF2.
  Summary of active molecular orbitals: 
------------------------------------------------------------------------
 
  Index      Eigenvalue    Symmetry    Index      Eigenvalue    Symmetry
------------------------------------------------------------------------
     1       -20.6208265        1       110         4.1236437        2
     2       -11.5320050        1       111         4.1583391        2
     3        -1.2189265        1       112         4.4454150        2
     4        -0.8139267        1       113         4.9433096        2
     5        -0.4816685        1       114         5.3456923        2
     6        -0.4768347        2       115         5.8724666        2
     7        -0.4768347        3       116         6.0907285        2
     8         0.0553643        1       117         6.3250730        2
     9         0.0689724        1       118         6.6280911        2
    10         0.1423756        1       119         6.8622618        2
    11         0.1618439        1       120         9.5440228        2
    12         0.2183065        1       121        10.7198712        2
    13         0.2839317        1       122        11.0075821        2
    14         0.3065791        1       123        11.9300987        2
    15         0.4073737        1       124        12.1129763        2
    16         0.5177719        1       125        13.0564928        2
    17         0.5503613        1       126        18.6394257        2
    18         0.6954729        1       127        26.3985521        2
    19         0.7290849        1       128        33.2994103        2
    20         0.8003421        1       129        47.2463621        2
    21         0.8414023        1       130        66.2417990        2
    22         0.9171481        1       131        98.4932065        2
    23         1.1605153        1       132        98.5256790        2
    24         1.2999529        1       133       103.3309603        2
    25         1.5763708        1       134       103.3500232        2
    26         1.5808739        1       135       115.0253847        2
    27         1.6525019        1       136       116.6306969        2
    28         1.8164296        1       137       198.6619384        2
    29         1.9238186        1       138       224.7362514        2
    30         2.0508260        1       139       395.1924754        2
    31         2.1107106        1       140        -0.0286256        3
    32         2.2256471        1       141         0.0805915        3
    33         2.2609033        1       142         0.1848737        3
    34         2.3455077        1       143         0.2773666        3
    35         2.5076696        1       144         0.4124342        3
    36         2.6115698        1       145         0.6252740        3
    37         2.8019553        1       146         0.7220407        3
    38         3.7034188        1       147         0.7639187        3
    39         3.7288581        1       148         0.8522213        3
    40         4.0537027        1       149         1.0636624        3
    41         4.1000785        1       150         1.4174087        3
    42         4.2694319        1       151         1.4440312        3
    43         4.3140006        1       152         1.6431019        3
    44         4.5253262        1       153         1.9860496        3
    45         4.7984633        1       154         2.1491456        3
    46         5.1199026        1       155         2.1913691        3
    47         5.8000437        1       156         2.1919031        3
    48         5.8727278        1       157         2.4440858        3
    49         6.0095917        1       158         2.6722957        3
    50         6.1079755        1       159         3.1857492        3
    51         6.2267668        1       160         3.8349019        3
    52         6.4482418        1       161         4.1236437        3
    53         6.9998475        1       162         4.1583391        3
    54         7.3049865        1       163         4.4454150        3
    55         9.1842419        1       164         4.9433096        3
    56        10.5851319        1       165         5.3456923        3
    57        10.6965362        1       166         5.8724666        3
    58        10.8868576        1       167         6.0907285        3
    59        11.0403702        1       168         6.3250730        3
    60        11.9697451        1       169         6.6280911        3
    61        12.3856685        1       170         6.8622618        3
    62        12.7263480        1       171         9.5440228        3
    63        13.2883592        1       172        10.7198712        3
    64        17.0879992        1       173        11.0075821        3
    65        19.2762654        1       174        11.9300987        3
    66        26.2296148        1       175        12.1129763        3
    67        26.7730512        1       176        13.0564928        3
    68        33.9866746        1       177        18.6394257        3
    69        35.4761642        1       178        26.3985521        3
    70        47.0923989        1       179        33.2994103        3
    71        47.3761848        1       180        47.2463621        3
    72        63.5646873        1       181        66.2417990        3
    73        66.7225333        1       182        98.4932065        3
    74        98.5102299        1       183        98.5256790        3
    75        98.5315286        1       184       103.3309603        3
    76       103.3317701        1       185       103.3500232        3
    77       103.3417122        1       186       115.0253847        3
    78       114.9423329        1       187       116.6306969        3
    79       115.1845132        1       188       198.6619384        3
    80       117.2229135        1       189       224.7362514        3
    81       121.7316145        1       190       395.1924754        3
    82       198.5783232        1       191         0.2183065        4
    83       198.7319186        1       192         0.5503613        4
    84       216.1090215        1       193         0.7290849        4
    85       225.1141169        1       194         0.8414023        4
    86       395.6509262        1       195         1.5808739        4
    87       508.4973449        1       196         1.6525019        4
    88       894.9205930        1       197         2.0508260        4
    89        -0.0286256        2       198         2.1107106        4
    90         0.0805915        2       199         2.2609033        4
    91         0.1848737        2       200         2.5076696        4
    92         0.2773666        2       201         3.7288581        4
    93         0.4124342        2       202         4.1000785        4
    94         0.6252740        2       203         4.3140006        4
    95         0.7220407        2       204         4.5253262        4
    96         0.7639187        2       205         5.8000437        4
    97         0.8522213        2       206         6.0095917        4
    98         1.0636624        2       207         6.2267668        4
    99         1.4174087        2       208         6.4482418        4
   100         1.4440312        2       209        10.6965362        4
   101         1.6431019        2       210        10.8868576        4
   102         1.9860496        2       211        11.9697451        4
   103         2.1491456        2       212        12.7263480        4
   104         2.1913691        2       213        26.2296148        4
   105         2.1919031        2       214        47.0923989        4
   106         2.4440858        2       215        98.5102299        4
   107         2.6722957        2       216       103.3317701        4
   108         3.1857492        2       217       114.9423329        4
   109         3.8349019        2       218       198.5783232        4
------------------------------------------------------------------------
  -20.6208265014391       -11.5320050148264       -1.21892650810493     
 -0.813926691206357      -0.481668467304213      -0.476834719180906     
 -0.476834719180925       5.536432496222496E-002  6.897242295246851E-002
  0.142375558539321       0.161843895789681       0.218306538871300     
  0.283931692281559       0.306579066726911       0.407373676760079     
  0.517771894638666       0.550361267706411       0.695472883793263     
  0.729084888104740       0.800342114156139       0.841402276436834     
  0.917148128685508        1.16051531087093        1.29995289812654     
   1.57637078990482        1.58087388144333        1.65250193352244     
   1.81642962617304        1.92381856419529        2.05082601130588     
   2.11071060351053        2.22564710710372        2.26090328876525     
   2.34550772375449        2.50766956536650        2.61156984518264     
   2.80195534217382        3.70341883872684        3.72885813690856     
   4.05370267643776        4.10007848440528        4.26943186067658     
   4.31400063954640        4.52532615477827        4.79846325840109     
   5.11990262366809        5.80004373663865        5.87272783632960     
[...]
 Perturbed amplitude equations converged in    23 iterations.
  Dominant contributions to perturbed wavefunction:
    7    0   46    0   0.3892146699 AA  
    7    0   22    0   0.3279437726 AA  
    7    0   32    0   0.2634562232 AA  
    7    0   36    0   0.2459724265 AA  
    7    0   28    0   0.2418810626 AA  
    7    7  140   46  -0.2348564627 ABAB
    7    7   46  140  -0.2348564627 ABAB
    7    0   54    0  -0.2318746337 AA  
    7    0   16    0  -0.2304252468 AA  
    7    7  140   22  -0.2246955449 ABAB
    7    7   22  140  -0.2246955449 ABAB
    7    0   25    0   0.2129409637 AA  
    7    0   37    0   0.2093366399 AA  
    7    0   56    0   0.2024869163 AA  
    7    0   24    0   0.1956909722 AA  
    7    7  140   32  -0.1878470237 ABAB
    7    7   32  140  -0.1878470237 ABAB
    7    0   63    0   0.1849080366 AA  
    7    0   38    0   0.1749144659 AA  
    7    0   40    0   0.1697390432 AA  
  norm of converged amps    1.57545363754941     
 Starting iterative solution of the perturbed Lambda equations.
 The DIIS procedure is used to accelerate convergence.
 Convergence criterion is 10**(-7).
 Maximum number of iterations is 100.
 Convergence information after     1 iterations: 
 Largest element of residual vector :  0.74616936E-01.
 Largest element of DIIS residual   :  0.74616936E-01.
 Convergence information after     2 iterations: 
 Largest element of residual vector :  0.20685148E-01.
 Largest element of DIIS residual   :  0.14770190E-01.
 Convergence information after     3 iterations: 
 Largest element of residual vector :  0.69372339E-02.
 Largest element of DIIS residual   :  0.55613364E-02.
 Convergence information after     4 iterations: 
 Largest element of residual vector :  0.27860865E-02.
 Largest element of DIIS residual   :  0.27069210E-02.
 Convergence information after     5 iterations: 
 Largest element of residual vector :  0.28051483E-02.
 Largest element of DIIS residual   :  0.24993408E-02.
 Convergence information after     6 iterations: 
 Largest element of residual vector :  0.17660331E-02.
 Largest element of DIIS residual   :  0.10154571E-02.
 Convergence information after     7 iterations: 
 Largest element of residual vector :  0.10790721E-02.
 Largest element of DIIS residual   :  0.51035140E-03.
 Convergence information after     8 iterations: 
 Largest element of residual vector :  0.40650891E-03.
 Largest element of DIIS residual   :  0.19376524E-03.
 Convergence information after     9 iterations: 
 Largest element of residual vector :  0.15394477E-03.
 Largest element of DIIS residual   :  0.98659392E-04.
 Convergence information after    10 iterations: 
 Largest element of residual vector :  0.11911422E-03.
 Largest element of DIIS residual   :  0.90579020E-04.
 Convergence information after    11 iterations: 
 Largest element of residual vector :  0.51532352E-04.
 Largest element of DIIS residual   : -0.23689680E-04.
 Convergence information after    12 iterations: 
 Largest element of residual vector :  0.37795130E-04.
 Largest element of DIIS residual   :  0.19284909E-04.
 Convergence information after    13 iterations: 
 Largest element of residual vector :  0.12139390E-04.
 Largest element of DIIS residual   :  0.85255480E-05.
 Convergence information after    14 iterations: 
 Largest element of residual vector :  0.10225743E-04.
 Largest element of DIIS residual   :  0.47993728E-05.
 Convergence information after    15 iterations: 
 Largest element of residual vector :  0.58300163E-05.
 Largest element of DIIS residual   :  0.32515467E-05.
 Convergence information after    16 iterations: 
 Largest element of residual vector :  0.23573160E-05.
 Largest element of DIIS residual   :  0.76309439E-06.
 Convergence information after    17 iterations: 
 Largest element of residual vector :  0.14837455E-05.
 Largest element of DIIS residual   :  0.75504186E-06.
 Convergence information after    18 iterations: 
 Largest element of residual vector :  0.39287489E-06.
 Largest element of DIIS residual   :  0.23598094E-06.
 Convergence information after    19 iterations: 
 Largest element of residual vector :  0.36095987E-06.
 Largest element of DIIS residual   :  0.19294204E-06.
 Convergence information after    20 iterations: 
 Largest element of residual vector :  0.15017688E-06.
 Largest element of DIIS residual   :  0.11101257E-06.
 Convergence information after    21 iterations: 
 Largest element of residual vector :  0.12629265E-06.
 Largest element of DIIS residual   :  0.47924709E-07.
 Perturbed Lambda equations converged in    21 iterations.
  Dominant contributions to perturbed wavefunction:
    7    7  140   46  -0.1407825606 ABAB
    7    7   46  140  -0.1407825606 ABAB
    7    7  140   22  -0.1386215049 ABAB
    7    7   22  140  -0.1386215049 ABAB
    7    0   46    0   0.1187145620 AA  
    7    7  140   32  -0.1166483631 ABAB
    7    7   32  140  -0.1166483631 ABAB
    7    0   22    0   0.0943138943 AA  
    7    7  140   36  -0.0934755437 ABAB
    7    7   36  140  -0.0934755437 ABAB
    7    6   46   89  -0.0913380690 ABAB
    6    7   89   46  -0.0913380690 ABAB
    7    6   22   89  -0.0888963700 ABAB
    6    7   89   22  -0.0888963700 ABAB
    7    7  140   16   0.0876124470 ABAB
    7    7   16  140   0.0876124470 ABAB
    7    5   46   10  -0.0838259321 ABAB
    5    7   10   46  -0.0838259321 ABAB
    7    7  140   56  -0.0824287787 ABAB
    7    7   56  140  -0.0824287787 ABAB
        The DBOC first-order density matrix is being calculated 
             (Symmetry block 3, perturbation   2)
 term   2.65723303569078     
 final tnorm  0.592155922878220     
  norm contr. I: |<0|L dT/dx|0>|^2   0.000000000000000E+000
  norm contr. II: <0|[nabla(1+L)e-T][nabla e^T]|0>   2.65723303569078     
  total norm contribution   2.65723303569078     
 oo  1.471041802281265E-002
 vv  -19.8479059220461     
 vo -5.329515953173210E-002
  Correlated perturbed 1-el contribution to DBOC  -19.8864906635550       cm**-1
  SUM_I |dc_I/dx|^2 contribution to DBOC   10.0037107386029       cm**-1
 
 
  The total diagonal Born-Oppenheimer correction (DBOC) is:      0.0040011730 a.u.
  The total diagonal Born-Oppenheimer correction (DBOC) is:        878.155970 cm-1
 
 Total CC energy including DBOC  -112.990164696903     
 First-order density matrix is being calculated  (Symmetry block 3, perturbation   2)
 Calculation of the contributions of <pq||rs> to dI(i,j)/dx required   4.5 seconds.
 Calculation of the contributions of <pq||rs> to dI(a,b)/dx required  16.4 seconds.
 Calculation of the contributions of <pq||rs> to dI(i,a)/dx required   7.6 seconds.
 First-order Z-vector equations are solved for 1 perturbation.
 Convergence reached after  20 iterations.
        U*G(pq,rs) contribution is being calculated
             (Symmetry block 3, perturbation   2)

 CCSD contribution to force constants 

        0.0000000000        0.0000000000        0.0000000000
        0.0000000000        0.0000000000        0.0000000000
        0.0000000000        0.0000000000        0.0000000000
        0.0000000000        0.0000000000        0.0000000000
        0.0000000000        0.0000000000        0.0000000000
        0.0000000000        0.0000000000        0.0000000000
        0.0000000000        0.0000000000        0.0000000000
        0.0000000000        0.0000000000        0.0000000000
        0.0000000000        0.0000000000        0.0000000000
        0.0000000000        0.0000000000        0.0000000000
        0.0000000000        0.0000000000        0.0000000000
        0.0000000000      -12.4425631229       12.4425631229

 CCSD contribution to dipole derivatives 

        0.0000000000        0.0000000000        0.0000000000
        0.0000000000        0.0000000000        0.0000000000
        0.0000000000        0.0000000000        0.0000000000
        0.0000000000        0.0000000000       -0.0538393728
        0.0000000000        0.0000000000        0.0000000000
        0.0000000000        0.0000000000        0.0000000000
 @CHECKOUT-I, Total execution time (CPU/WALL):     1411.79/     900.59 seconds.
--executable xsdcc finished with status     0 in      900.85 seconds (walltime).
 --invoking executable--
/nfs/workspaces/public/cfour_mpi/bin/xanti
 @GETMEM-I,  Allocated    3814 MB of main memory.
 CCSD MO derivative gammas will be sorted to Mulliken order.
 @CHECKOUT-I, Total execution time (CPU/WALL):       16.07/      53.03 seconds.
--executable xanti finished with status     0 in       53.19 seconds (walltime).
 --invoking executable--
/nfs/workspaces/public/cfour_mpi/bin/xbcktrn
 @GETMEM-I,  Allocated    3814 MB of main memory.
 CCSD MO derivative gammas will be transformed to the AO basis.
 @CHECKOUT-I, Total execution time (CPU/WALL):       58.03/      24.52 seconds.
--executable xbcktrn finished with status     0 in       24.61 seconds (walltime).
 --invoking executable--
/nfs/workspaces/public/cfour_mpi/bin/xvdint
 @GETMEM-I,  Allocated    3814 MB of main memory.
 One- and two-electron integral derivatives are calculated
 for RHF-CC/MBPT hessians and dipole derivatives.
 Spherical gaussians are used.
  magnet F F
                    8722  records have been written to the Sort file.
  Total length of Sort file :             178609116  words.
 Evaluation of 2el integral derivatives

                      Two-electron integral gradient
                      ------------------------------

                         C #1 z     0.0000000000
                         O #2 z     0.0000000000


 C #1       0.0000000000            0.0497551504            0.0000000000
 O #2       0.0000000000           -0.0497551504            0.0000000000


 Evaluation of 2e integral derivatives required  418.32 seconds.
  contribution to Hessian
        0.0000000000        0.0000000000        0.0000000000
        0.0000000000        0.0497551504       -0.0497551504
 @CHECKOUT-I, Total execution time (CPU/WALL):      418.31/     110.19 seconds.
--executable xvdint finished with status     0 in      110.41 seconds (walltime).
 --invoking executable--
/nfs/workspaces/public/cfour_mpi/bin/xanti
 @GETMEM-I,  Allocated    3814 MB of main memory.
 CCSD MO gammas will be sorted to Mulliken order.
 @CHECKOUT-I, Total execution time (CPU/WALL):       16.90/      53.77 seconds.
--executable xanti finished with status     0 in       53.96 seconds (walltime).
 --invoking executable--
/nfs/workspaces/public/cfour_mpi/bin/xbcktrn
 @GETMEM-I,  Allocated    3814 MB of main memory.
 CCSD MO gammas will be transformed to the AO basis.
 @CHECKOUT-I, Total execution time (CPU/WALL):       65.68/      28.36 seconds.
--executable xbcktrn finished with status     0 in       28.43 seconds (walltime).
 --invoking executable--
/nfs/workspaces/public/cfour_mpi/bin/xvdint
 @GETMEM-I,  Allocated    3814 MB of main memory.
 One- and two-electron integral derivatives are calculated
 for RHF-CC/MBPT hessians and dipole derivatives.
 Spherical gaussians are used.
  magnet F F

                     Kinetic energy integral gradient
                     --------------------------------

                         C #1 z    -0.3462184809
                         O #2 z     0.3462184809


 C #1       0.0000000000            0.0000000000           -0.3462184809
 O #2       0.0000000000            0.0000000000            0.3462184809



                   Nuclear attraction integral gradient
                   ------------------------------------

                         C #1 z    11.0734310768
                         O #2 z   -11.0734310768


 C #1       0.0000000000            0.0000000000           11.0734310768
 O #2       0.0000000000            0.0000000000          -11.0734310768



                      Reorthonormalization gradient
                      -----------------------------

                         C #1 z     0.0000000000
                         O #2 z     0.0000000000


 C #1       0.0000000000            0.0000000000            0.0000000000
 O #2       0.0000000000            0.0000000000            0.0000000000



                     Kinetic energy integral Hessian
                     -------------------------------


           Symmetry 1

           C #1 z      O #2 z

 C #1 z    0.370784
 O #2 z   -0.370784    0.370784


           Symmetry 2

           C #1 x      O #2 x

 C #1 x   -0.217483
 O #2 x    0.217483   -0.217483


           Symmetry 3

           C #1 y      O #2 y

 C #1 y   -0.217483
 O #2 y    0.217483   -0.217483




           C #1 x      C #1 y      C #1 z      O #2 x      O #2 y      O #2 z

 C #1 x   -0.217483
 C #1 y    0.000000   -0.217483
 C #1 z    0.000000    0.000000    0.370784

 O #2 x    0.217483    0.000000    0.000000   -0.217483
 O #2 y    0.000000    0.217483    0.000000    0.000000   -0.217483
 O #2 z    0.000000    0.000000   -0.370784    0.000000    0.000000    0.370784




                   Nuclear attraction integral Hessian
                   -----------------------------------


           Symmetry 1

           C #1 z      O #2 z

 C #1 z   -6.483137
 O #2 z    6.483137   -6.483137


           Symmetry 2

           C #1 x      O #2 x

 C #1 x    4.949638
 O #2 x   -4.949638    4.949638


           Symmetry 3

           C #1 y      O #2 y

 C #1 y    4.949638
 O #2 y   -4.949638    4.949638




           C #1 x      C #1 y      C #1 z      O #2 x      O #2 y      O #2 z

 C #1 x    4.949638
 C #1 y    0.000000    4.949638
 C #1 z    0.000000    0.000000   -6.483137

 O #2 x   -4.949638    0.000000    0.000000    4.949638
 O #2 y    0.000000   -4.949638    0.000000    0.000000    4.949638
 O #2 z    0.000000    0.000000    6.483137    0.000000    0.000000   -6.483137




                Highest order reorthonormalization Hessian
                ------------------------------------------


           Symmetry 1

           C #1 z      O #2 z

 C #1 z    0.000000
 O #2 z    0.000000    0.000000


           Symmetry 2

           C #1 x      O #2 x

 C #1 x    0.000000
 O #2 x    0.000000    0.000000


           Symmetry 3

           C #1 y      O #2 y

 C #1 y    0.000000
 O #2 y    0.000000    0.000000




           C #1 x      C #1 y      C #1 z      O #2 x      O #2 y      O #2 z




                Electronic contributions to dipole moment
                -----------------------------------------

                               au             Debye

                    z      1.54233302      3.92022019

  Conversion factor used: 1 a.u. =   2.54174691 Debye 



   Electronic contributions to static part of dipole moment derivatives
   --------------------------------------------------------------------


                     Total dipole moment derivatives
                     -------------------------------


           Symmetry 1
                              Ez

               C #1 z    -5.71709470
               O #2 z    -8.28290530

           Symmetry 2
                              Ex

               C #1 x    -5.70556614
               O #2 x    -8.29443386

           Symmetry 3
                              Ey

               C #1 y    -5.70556614
               O #2 y    -8.29443386



                       Ex          Ey          Ez

      C #1    x   -5.705566    0.000000    0.000000
      C #1    y    0.000000   -5.705566    0.000000
      C #1    z    0.000000    0.000000   -5.717095

      O #2    x   -8.294434    0.000000    0.000000
      O #2    y    0.000000   -8.294434    0.000000
      O #2    z    0.000000    0.000000   -8.282905

 Evaluation of 1e integral derivatives required    1.21 seconds.
                    8815  records have been written to the Sort file.
  Total length of Sort file :             180513570  words.
 Evaluation of 2el integral derivatives

                      Two-electron integral gradient
                      ------------------------------

                         C #1 z    -6.1032163704
                         O #2 z     6.1032163704


 C #1       0.0000000000            0.0000000000           -6.1032163704
 O #2       0.0000000000            0.0000000000            6.1032163704


 Evaluation of 2e integral derivatives required  739.32 seconds.

                            Molecular gradient
                            ------------------

                         C #1 z     0.4754272897
                         O #2 z    -0.4754272897


 C #1       0.0000000000            0.0000000000            0.4754272897
 O #2       0.0000000000            0.0000000000           -0.4754272897


  Molecular gradient norm 0.672E+00

                            Molecular hessian
                            -----------------


           Symmetry 1

           C #1 z      O #2 z

 C #1 z    5.530917
 O #2 z   -5.530917    5.530917


           Symmetry 2

           C #1 x      O #2 x

 C #1 x   12.609377
 O #2 x  -12.609377   12.609377


           Symmetry 3

           C #1 y      O #2 y

 C #1 y   12.609377
 O #2 y  -12.609377   12.609377




           C #1 x      C #1 y      C #1 z      O #2 x      O #2 y      O #2 z

 C #1 x   12.609377
 C #1 y    0.000000   12.609377
 C #1 z    0.000000    0.000000    5.530917

 O #2 x  -12.609377    0.000000    0.000000   12.609377
 O #2 y    0.000000  -12.609377    0.000000    0.000000   12.609377
 O #2 z    0.000000    0.000000   -5.530917    0.000000    0.000000    5.530917




                           Total dipole moment
                           -------------------

                               au             Debye

                    z      0.59720278      1.51793833

  Conversion factor used: 1 a.u. =   2.54174691 Debye 



                     Total dipole moment derivatives
                     -------------------------------


           Symmetry 1
                              Ez

               C #1 z     0.28661568
               O #2 z    -0.28661568

           Symmetry 2
                              Ex

               C #1 x     0.19413741
               O #2 x    -0.19413741

           Symmetry 3
                              Ey

               C #1 y     0.19413741
               O #2 y    -0.19413741



                       Ex          Ey          Ez

      C #1    x    0.194137    0.000000    0.000000
      C #1    y    0.000000    0.194137    0.000000
      C #1    z    0.000000    0.000000    0.286616

      O #2    x   -0.194137    0.000000    0.000000
      O #2    y    0.000000   -0.194137    0.000000
      O #2    z    0.000000    0.000000   -0.286616

 @CHECKOUT-I, Total execution time (CPU/WALL):      740.52/     191.01 seconds.
--executable xvdint finished with status     0 in      191.29 seconds (walltime).
 --invoking executable--
/nfs/workspaces/public/cfour_mpi/bin/xjoda
  @GTFLGS-I, Hessian will be transformed to curvilinear coordinates.
  @GTFLGS-I, Hessian will be transformed to curvilinear coordinates.
  igrd and ihes are                      0                     1
  gradient from JOBARC 
   0.000000000000000   0.000000000000000   0.475427289660301
   0.000000000000000   0.000000000000000  -0.475427289660301
 
  @PROJFCM-I, Projecting force constant matrix onto totally symmetric subspace.
  Largest difference between matrix elements of symmetrized
  and unsymmetrized FCM :    -0.2593480986E-12.
  read isotopes from ZMAT file 
 
  Summary of diagonal Born-Oppenheimer correction at the correlated level
  The total diagonal Born-Oppenheimer correction (DBOC) is:      0.0040011730 a.u.
  The total diagonal Born-Oppenheimer correction (DBOC) is:        878.155970 cm-1
  The total diagonal Born-Oppenheimer correction (DBOC) is:            10.505 kJ/mole
  hellooooooo 
  readis is  F
 
 @CHECKOUT-I, Total execution time (CPU/WALL):        0.01/       0.05 seconds.
--executable xjoda finished with status     0 in        0.10 seconds (walltime).
  The final electronic energy is      -112.990164696903321 a.u. 
  This computation required                         6453.07 seconds (walltime).
