 --invoking executable--
/nfs/workspaces/public/cfour_mpi/bin/xjoda


   *************************************************************************
         <<<     CCCCCC     CCCCCC   |||     CCCCCC     CCCCCC   >>>
       <<<      CCC        CCC       |||    CCC        CCC         >>>
      <<<      CCC        CCC        |||   CCC        CCC            >>>
    <<<        CCC        CCC        |||   CCC        CCC              >>>
      <<<      CCC        CCC        |||   CCC        CCC            >>>
       <<<      CCC        CCC       |||    CCC        CCC         >>>
         <<<     CCCCCC     CCCCCC   |||     CCCCCC     CCCCCC   >>>
   *************************************************************************

     ****************************************************************
     * CFOUR Coupled-Cluster techniques for Computational Chemistry *
     ****************************************************************
 

   Department of Chemistry                Institut fuer Physikalische Chemie
   University of Florida                  Universitaet Mainz
   Gainesville, FL 32611, USA             D-55099 Mainz, Germany

   Department of Chemistry                Fakultaet fuer Chemie und Biowiss.
   Johns Hopkins University               Karlsruher Institut fuer Technologie
   Baltimore, MD 21218, USA               D-76131 Karlsruhe, Germany

   Department of Chemistry                Department of Physical Chemistry
   Southern Methodist University          Eotvos Lorand University
   Dallas, TX 75275, USA                  H-1053 Budapest, Hungary

 
                       Version 2.1
 
                     vincent.theory.phys.ucl.ac.uk                     
                     Wed 26 Feb 23:18:40 GMT 2025                      
                     integer*8 version is running
 
********************************************************************************
*                          Input from ZMAT file                                *
********************************************************************************
Carbon Monoxide DBOC calculation                                                
C                                                                               
O 1 r                                                                           
                                                                                
r=1.0862068965517242                                                            
                                                                                
                                                                                
*CFOUR(CALC=CCSD,BASIS=AUG-PCVQZ,SCF_CONV=10                                    
CC_CONV=14,DBOC=ON,MEMORY=500000000                                             
ZFIELD=-200)                                                                    
                                                                                
%isotopes                                                                       
13                                                                              
16                                                                              
********************************************************************************
  @GTFLGS-I, Hessian will be transformed to curvilinear coordinates.
    -------------------------------------------------------------------
                    CFOUR Control Parameters 
    -------------------------------------------------------------------
        External           Internal           Value            Units
          Name               Name
    -------------------------------------------------------------------
       ABCDTYPE             IABCDT         STANDARD    [  0]    ***   
       ANHARMONIC           IANHAR         OFF         [  0]    ***   
       ANH_ALGORIT          IANALG         STANDARD    [  0]    ***   
       ANH_DERIVAT          IANDER         SECOND      [  1]    ***   
       ANH_MODE             ANHMOD         VIBRATION   [  0]    ***   
       ANH_STEPSIZ          ICUBST             50000          x 10-6  
       ANH_SYMMETR          IANHSM         ABELIAN     [  0]    ***   
       AO_LADDERS           IAOLAD         SINGLEPASS  [  1]    ***   
       AV_SCF               IAVSCF         OFF         [  0]    ***   
       BASIS                IBASIS         AUG-PCVQZ   [ 52]    ***   
       BOTHVECTORS          BOTHVC         OFF         [  0]    ***   
       BOX_POTENT           IPIAB          OFF         [  0]    ***   
       BREIT                IBREIT         OFF         [  0]    ***   
       BRUCK_CONV           IBRTOL          10D-  4             ***   
       BRUECKNER            IBRKNR         OFF         [  0]    ***   
       BUFFERSIZE           IBUFFS              4096            ***   
       CACHE_RECS           ICHREC             10               ***   
       CALCLEVEL            ICLLVL         CCSD        [ 10]    ***   
       CCORBOPT             ICCORB         OFF         [  0]  x 0.01  
       CC_CONV              ICCCNV          10D- 14             ***   
       CC_EXPORDER          ICCEOR              5               ***   
       CC_EXTRAPOL          ICCEXT         DIIS        [  1]    ***   
       CC_GUESS             ICCGES         MP2         [  0]    ***   
       CC_MAXCYC            ICCCYC            100              cycles 
       CC_PROGRAM           ICCPRO         VCC         [  0]    ***   
       CHARGE               ICHRGE              0               ***   
       CHOLESKY             ICHOLE         OFF         [  0]    ***   
       CIS_CONV             ICISTL              5               ***   
       COMM_SIZE            IPSIZE            ***               ***   
       CONSTANT             ICONST         OLD         [  1]    ***   
       CONTINUUM            ICONTU         NONE        [  0]    ***   
       CONTRACTION          ICNTYP         GENERAL     [  1]    ***   
       COORDINATES          ICOORD         INTERNAL    [  0]    ***   
       CPHF_CONVER          ICPHFT          10D- 16             ***   
       CPHF_MAXCYC          ICPHFC             64              cycles 
       CUBIC                ICUBIC         OFF         [  0]    ***   
       CURVILINEAR          ICURVY         ON          [  1]    ***   
       DBOC                 IDBOC          ON          [  1]    ***   
       DCT                  IDCT           OFF         [  0]    ***   
       DERIV_LEV            IDRLVL         SECOND      [  2]    ***   
       DEVMEM_SIZE          IDVMEM          50000000           MByte  
       DIAG_MRCC            IEOMST          10D-  0             ***   
       DIFF_TYPE            IDIFTY         RELAXED     [  0]    ***   
       DIRECT               IDIRCT         OFF         [  0]    ***   
       DROPMO               IDRPMO      NONE         
       ECP                  IECP           OFF         [  0]    ***   
       EIGENVECTOR          IVEC                1               ***   
       EL_ANHARM            IELANH         OFF         [  0]    ***   
       EOMFOLLOW            IEOMSR         ENERGY      [  0]    ***   
       EOMIP                IEOMIP         OFF         [  0]    ***   
       EOMLEVEL             HBARFM         SAME        [  0]    ***   
       EOM_MRCC             IMRCCE         NEW         [  1]    ***   
       EOM_NONIT            EOMNON         OFF         [  0]    ***   
       EOM_NSING            IEOMSI          10D-  0             ***   
       EOM_NSTATES          IMRCCD         DAVIDSON    [  0]    ***   
       EOM_NTRIP            IEOMTR          10D-  0             ***   
       EOM_ORDER            IEXORD         ENERGY      [  0]    ***   
       EOM_PROPSTA          IEOMST              0               ***   
       ESTATE_CONV          IEXTOL          10D-  5             ***   
       ESTATE_DIAG          IEXDIG         ITERATIVE   [  0]    ***   
       ESTATE_LOCK          IESLOC         ON          [  1]    ***   
       ESTATE_MAXC          IEXMXC             40               ***   
       ESTATE_PROP          IEXPRP         OFF         [  0]    ***   
       EVAL_HESS            IRECAL              0            # of cyc.
       EXCITATION           IEXCIT              0               ***   
       EXCITE               IEXCIT         NONE        [  0]    ***   
       EXTERN_POT           IEXPOT         OFF         [  0]    ***   
       FCGRADNEW            IFCGNW         OFF         [  0]    ***   
       FC_FIELD             IFINFC              0             x 10-6  
       FD_CALTYPE           IFDCAL         GRADONLY    [  0]    ***   
       FD_PROJECT           IFDPRJ         OFF         [  1]    ***   
       FD_STEPSIZE          IDISFD              0            10-4 bohr
       FD_USEGROUP          IFDGRP         FULL        [  0]    ***   
       FILE_RECSIZ          IFLREC              4096           words  
       FINITE_PERT          IFIPER              0             x 10-6  
       FIXGEOM              IFIXGM         OFF         [  0]    ***   
       FOCK                 IFOCK          AO          [  1]    ***   
       FREQ_ALGORI          IVIALG         STANDARD    [  0]    ***   
       FROZEN_CORE          IFROCO         OFF         [  0]    ***   
       GAMMA_ABCD           IGABCD         STORE       [  0]    ***   
       GAMMA_ABCI           IGABCI         STORE       [  0]    ***   
       GENBAS_1             IGNBS1              0               ***   
       GENBAS_2             IGNBS2              0               ***   
       GENBAS_3             IGNBS3              0               ***   
       GENBAS_4             IGNBS4              0               ***   
       GEO_CONV             ICONTL              5              H/bohr 
       GEO_MAXCYC           IOPTCY             50               ***   
       GEO_MAXSTEP          IMXSTP            300            millibohr
       GEO_METHOD           INR            SINGLE_POINT[  5]    ***   
       GIAO                 IGIAO          OFF         [  1]    ***   
       GIMIC                IGIMIC         OFF         [  0]    ***   
       GRID                 IGRID          OFF         [  0]    ***   
       GRID_ALGO            IGALGO         SERIAL      [  0]    ***   
       GUESS                IGUESS         MOREAD      [  0]    ***   
       HBAR                 IHBAR          OFF         [  0]    ***   
       HESS_TYPE            IHESTP         SCF         [  0]    ***   
       HF2_FILE             IHF2Fl         USE         [  1]    ***   
       HFSTABILITY          ISTABL         OFF         [  0]    ***   
       INCORE               INCORE         OFF         [  0]    ***   
       INPUT_MRCC           IMRCC          ON          [  1]    ***   
       INTEGRALS            INTTYP         VMOL        [  1]    ***   
       JODA_PRINT           IJPRNT              0               ***   
       KEYWORD_OUT          IDMPKW         NO          [  0]    ***   
       LINDEP_TOL           ILINDP              8               ***   
       LINEQ_CONV           IZTACN          10D-  7           cycles  
       LINEQ_EXPOR          ILMAXD              5               ***   
       LINEQ_MAXCY          ILMAXC            100               ***   
       LINEQ_TYPE           ILTYPE         DIIS        [  1]    ***   
       LOCK_ORBOCC          ILOCOC         OFF         [  0]    ***   
       MEMORY_SIZE          IMEMSZ         500000000           words  
       MEM_UNIT             IMEMU          INTEGERWORDS[  0]    ***   
       MRCC                 IMRCCC         OFF         [  0]    ***   
       MULTIPLICTY          IMULTP              1               ***   
       NACOUPLING           IVCOUP         OFF         [  0]    ***   
       NEGEVAL              IDIE           ABORT       [  0]    ***   
       NEWNORM              INEWNO         OFF         [  0]    ***   
       NON-HF               INONHF         OFF         [  0]    ***   
       NTOP_TAMP            ITOPT2             15               ***   
       NUC_MODEL            INUCMO         POINT       [  0]    ***   
       OCCUPATION           IOCCU   ESTIMATED BY SCF 
       OPEN-SHELL           IOPEN          SPIN-ORBITAL[  0]    ***   
       OPTVIB               IOPTVB         OFF         [  0]    ***   
       ORBITALS             IORBTP         STANDARD    [  0]    ***   
       PARALLEL             IPARAL         ON          [  1]    ***   
       PARA_INT             IPINTS         ON          [  1]    ***   
       PARA_PRINT           IPPRIN              0               ***   
       PERT_ORB             IPTORB         STANDARD    [  0]    ***   
       POINTS               IGRDFD              0               ***   
       PRINT                IPRNT               0               ***   
       PROPS                IPROPS         OFF         [  0]    ***   
       PROP_INTEGR          IINTYP         INTERNAL    [  0]    ***   
       PSI                  IPSI           OFF         [  0]    ***   
       QC_ALG               IQCALG         FLM         [  0]    ***   
       QC_LINALG            IQCLIN         TRIDIAG     [  2]    ***   
       QC_MAXCYC            IQCMAX          10D-100           cycles  
       QC_MAXSCFCY          IQCMSC          10D- 15           cycles  
       QC_RTRUST            IQCRTR          10D-  0           x 10-3  
       QC_SKIPSCF           IQCSKI         OFF         [  0]    ***   
       QC_START             IQCSTA          10D-  1             ***   
       QRHFGUESS            IQGUES         OFF         [  0]    ***   
       QUARTIC              IQUART         OFF         [  0]    ***   
       RAMAN_INT            IRAMIN         OFF         [  0]    ***   
       RAMAN_ORB            IRAMRE         UNRELAXED   [  0]    ***   
       RDO                  IRDOFM         ON          [  1]    ***   
       REDUCE_REPR          REDREP         Ir          [  0]    ***   
       REFERENCE            IREFNC         RHF         [  0]    ***   
       RELATIVIST           IRELAT         OFF         [  0]    ***   
       RELAX_DENS           IRDENS         ON          [  1]    ***   
       RESET_FLAGS          IRESET         OFF         [  0]    ***   
       RESTART_CC           ICCRES         OFF         [  0]    ***   
       ROT_EVEC             ROTVEC              0               ***   
       SAVE_INTS            ISVINT         OFF         [  0]    ***   
       SCALE_ON             ISTCRT              0               ***   
       SCF_CONV             ISCFCV          10D- 10             ***   
       SCF_DAMPING          IDAMP               0             x 10-3  
       SCF_EXPORDE          IRPPOR              6               ***   
       SCF_EXPSTAR          IRPPLS              8               ***   
       SCF_EXTRAPO          IRPP           ON          [  1]    ***   
       SCF_MAXCYC           ISCFCY            150              cycles 
       SCF_NOSTOP           ISCFST         OFF         [  0]    ***   
       SCF_PRINT            ISCFPR              0               ***   
       SCF_PROG             ISCFPR         SCF         [  0]    ***   
       SD_FIELD             IFINSD              0             x 10-6  
       SOPERT               IPERSO         OFF         [  0]    ***   
       SPHERICAL            IDFGHI         ON          [  1]    ***   
       SPINORBIT            ISOCAL         OFF         [  0]    ***   
       SPINROTATIO          ISRCON         OFF         [  0]    ***   
       SPIN_FLIP            ISPFLP         OFF         [  0]    ***   
       SPIN_ORBIT           ISPORB         OFF         [  0]    ***   
       SPIN_SCAL            ISCSMP         OFF         [  0]    ***   
       STEEPSCALE           ISTPSC              1000          x 10-3  
       SUBGROUP             ISUBGP         DEFAULT     [  0]    ***   
       SUBGRPAXIS           ISBXYZ         X           [  0]    ***   
       SYMMETRY             ISYM           ON          [  0]    ***   
       SYM_CHECK            ISYMCK         OVERRIDE    [  1]    ***   
       T3_EXTRAPOL          IT3EXT         OFF         [  0]    ***   
       T4_EXTRAPOL          IT4EXP         OFF         [  0]    ***   
       TAMP_SUM             IEVERY              5               ***   
       TESTSUITE            ITESTS         OFF         [  0]    ***   
       THERMOCH             ITHERM         OFF         [  0]    ***   
       TOL_CHOLESK          ITOLCH          10D-  4             ***   
       TRANGRAD             IRESRM         OFF         [  0]    ***   
       TRANS_INV            ITRAIN         IGNORE      [  1]    ***   
       TREAT_PERT           ITREAT         SIMULTANEOUS[  0]    ***   
       TRIP_ALGORI          ITRALG         NORMAL      [  0]    ***   
       UIJ_THRESHO          IUIJTH              1               ***   
       UNITS                IUNITS         ANGSTROM    [  0]    ***   
       UNOS                 IUNOS          OFF         [  0]    ***   
       UPDATE_HESS          IHUPDT         ON          [  1]    ***   
       VIBPHASE             ISETPH         STANDARD    [  0]    ***   
       VIBRATION            IVIB           ANALYTIC    [  1]    ***   
       VIB_ALGORIT          IGEALG         STANDARD    [  0]    ***   
       VNATORB              IVNORB         OFF         [  0]    ***   
       VTRAN                IVTRAN         FULL/PARTIAL[  0]    ***   
       XFIELD               IXEFLD              0             x 10-6  
       XFORM_TOL            IXFTOL          10D- 11             ***   
       YFIELD               IYEFLD              0             x 10-6  
       ZFIELD               IZEFLD            ***             x 10-6  
       ZSCALE_EXP           IZEXPS         OFF         [  0]    ***   
    -------------------------------------------------------------------
   2 entries found in Z-matrix 
   Job Title : Carbon Monoxide DBOC calculation                                                
   There are  1 unique internal coordinates.
   Of these,  0 will be optimized.
   User supplied Z-matrix: 
--------------------------------------------------------------------------------
       SYMBOL    BOND      LENGTH    ANGLE     ANGLE     DIHED     ANGLE
                  TO      (ANGST)    WRT      (DEG)      WRT      (DEG)
--------------------------------------------------------------------------------
        C    
        O          1         r    
                  *Initial values for internal coordinates* 
                      Name             Value
                        r               1.0862068966
--------------------------------------------------------------------------------
  read isotopes from ZMAT file 
   Rotational constants (in cm-1): 
          1.9920772905             1.9920772905
   Rotational constants (in MHz): 
      59720.9831099076         59720.9831099076
********************************************************************************
   The full molecular point group is CXv .
   The largest Abelian subgroup of the full molecular point group is C2v .
   The computational point group is C2v .
********************************************************************************
--------------------------------------------------------------------------------
   Analysis of internal coordinates specified by Z-matrix 
--------------------------------------------------------------------------------
   *The nuclear repulsion energy is   23.384588038095234 a.u.
   *There is   1 degree of freedom within the tot. symm. molecular subspace.
   *Z-matrix requests optimization of   0 coordinates.
   *The optimization is constrained.
   *The following   1 parameters can have non-zero 
    derivatives within the totally symmetric subspace:
             r    [ 1]
   *The following   0 parameters are to be optimized:

   *The following coordinates must be varied in an  unconstrained optimization.
             r    [ 1]
--------------------------------------------------------------------------------


 ----------------------------------------------------------------
         Coordinates used in calculation (QCOMP) 
 ----------------------------------------------------------------
 Z-matrix   Atomic            Coordinates (in bohr)
  Symbol    Number           X              Y              Z
 ----------------------------------------------------------------
     C         6        -0.00000000     0.00000000     1.13219533
     O         8         0.00000000     0.00000000    -0.92043865
 ----------------------------------------------------------------
 
   Interatomic distance matrix (Angstroms) 
 
                 C             O    
                [ 1]        [ 2]
  C    [ 1]     0.00000
  O    [ 2]     1.08621     0.00000
 rotcon2
   Rotational constants (in cm-1): 
          1.9920772905             0.0000000000
   Rotational constants (in MHz): 
      59720.9831099076             0.0000000000
  ECPDATA file not present.   Using default ECPDATA. 
  @GTFLGS-I, Hessian will be transformed to curvilinear coordinates.
  There are  218 basis functions.
 @CHECKOUT-I, Total execution time (CPU/WALL):        0.11/       0.15 seconds.
--executable xjoda finished with status     0 in        0.16 seconds (walltime).
 --invoking executable--
/nfs/workspaces/public/cfour_mpi/bin/xvmol
 SERIAL VERSION OF MOLECULE STARTED
********************************************************************************
                    INPUT FROM MOL FILE
********************************************************************************
INTGRL        1    0    1    0    0    0    0    0    0                         
         *** CFOUR Program System (Release V0.1) ***                            
Carbon Monoxide DBOC calculation                                                
    2    2 X  Y       0.10E-08              0    0                              
   9999.00      3.00                                                            
          6.00000000    1    5    1    1    1    1    1                         
C #1  -0.000000000000000   0.000000000000000   1.132195330348643                
   16    9                                                                      
   33980.0000000000       9.100000000000000E-005 -1.900000000000000E-005        
  0.000000000000000E+000  0.000000000000000E+000  0.000000000000000E+000        
  0.000000000000000E+000  0.000000000000000E+000  0.000000000000000E+000        
  0.000000000000000E+000                                                        
   5089.00000000000       7.040000000000000E-004 -1.510000000000000E-004        
  0.000000000000000E+000  0.000000000000000E+000  0.000000000000000E+000        
  0.000000000000000E+000  0.000000000000000E+000  0.000000000000000E+000        
  0.000000000000000E+000                                                        
   1157.00000000000       3.693000000000000E-003 -7.850000000000000E-004        
  0.000000000000000E+000  0.000000000000000E+000  0.000000000000000E+000        
  0.000000000000000E+000  0.000000000000000E+000  0.000000000000000E+000        
  0.000000000000000E+000                                                        
   326.600000000000       1.536000000000000E-002 -3.324000000000000E-003        
  0.000000000000000E+000  0.000000000000000E+000  0.000000000000000E+000        
  0.000000000000000E+000  0.000000000000000E+000  0.000000000000000E+000        
  0.000000000000000E+000                                                        
   106.100000000000       5.292900000000000E-002 -1.151200000000000E-002        
  0.000000000000000E+000  0.000000000000000E+000  0.000000000000000E+000        
  0.000000000000000E+000  0.000000000000000E+000  0.000000000000000E+000        
  0.000000000000000E+000                                                        
   38.1100000000000       0.147043000000000      -3.416000000000000E-002        
  0.000000000000000E+000  0.000000000000000E+000  0.000000000000000E+000        
  0.000000000000000E+000  0.000000000000000E+000  0.000000000000000E+000        
  0.000000000000000E+000                                                        
   14.7500000000000       0.305631000000000      -7.717300000000001E-002        
  0.000000000000000E+000  0.000000000000000E+000  0.000000000000000E+000        
  0.000000000000000E+000  0.000000000000000E+000  0.000000000000000E+000        
  0.000000000000000E+000                                                        
   6.03500000000000       0.399345000000000      -0.141493000000000             
  0.000000000000000E+000  0.000000000000000E+000  0.000000000000000E+000        
  0.000000000000000E+000  0.000000000000000E+000  0.000000000000000E+000        
  0.000000000000000E+000                                                        
   2.53000000000000       0.217051000000000      -0.118019000000000             
  0.000000000000000E+000  0.000000000000000E+000  0.000000000000000E+000        
  0.000000000000000E+000  0.000000000000000E+000  0.000000000000000E+000        
  0.000000000000000E+000                                                        
  0.735500000000000       1.589400000000000E-002  0.273806000000000             
   1.00000000000000       0.000000000000000E+000  0.000000000000000E+000        
  0.000000000000000E+000  0.000000000000000E+000  0.000000000000000E+000        
  0.000000000000000E+000                                                        
  0.290500000000000      -3.084000000000000E-003  0.586510000000000             
  0.000000000000000E+000   1.00000000000000       0.000000000000000E+000        
  0.000000000000000E+000  0.000000000000000E+000  0.000000000000000E+000        
  0.000000000000000E+000                                                        
  0.111100000000000       9.779999999999999E-004  0.285430000000000             
  0.000000000000000E+000  0.000000000000000E+000   1.00000000000000             
  0.000000000000000E+000  0.000000000000000E+000  0.000000000000000E+000        
  0.000000000000000E+000                                                        
   7.21600000000000       0.000000000000000E+000  0.000000000000000E+000        
  0.000000000000000E+000  0.000000000000000E+000  0.000000000000000E+000        
   1.00000000000000       0.000000000000000E+000  0.000000000000000E+000        
  0.000000000000000E+000                                                        
   19.5700000000000       0.000000000000000E+000  0.000000000000000E+000        
  0.000000000000000E+000  0.000000000000000E+000  0.000000000000000E+000        
  0.000000000000000E+000   1.00000000000000       0.000000000000000E+000        
  0.000000000000000E+000                                                        
   53.0730000000000       0.000000000000000E+000  0.000000000000000E+000        
  0.000000000000000E+000  0.000000000000000E+000  0.000000000000000E+000        
  0.000000000000000E+000  0.000000000000000E+000   1.00000000000000             
  0.000000000000000E+000                                                        
  4.145000000000000E-002  0.000000000000000E+000  0.000000000000000E+000        
  0.000000000000000E+000  0.000000000000000E+000  0.000000000000000E+000        
  0.000000000000000E+000  0.000000000000000E+000  0.000000000000000E+000        
   1.00000000000000                                                             
   10    8                                                                      
   34.5100000000000       5.378000000000000E-003  0.000000000000000E+000        
  0.000000000000000E+000  0.000000000000000E+000  0.000000000000000E+000        
  0.000000000000000E+000  0.000000000000000E+000  0.000000000000000E+000        
   7.91500000000000       3.613200000000000E-002  0.000000000000000E+000        
  0.000000000000000E+000  0.000000000000000E+000  0.000000000000000E+000        
  0.000000000000000E+000  0.000000000000000E+000  0.000000000000000E+000        
   2.36800000000000       0.142493000000000       0.000000000000000E+000        
  0.000000000000000E+000  0.000000000000000E+000  0.000000000000000E+000        
  0.000000000000000E+000  0.000000000000000E+000  0.000000000000000E+000        
  0.813200000000000       0.342150000000000        1.00000000000000             
  0.000000000000000E+000  0.000000000000000E+000  0.000000000000000E+000        
  0.000000000000000E+000  0.000000000000000E+000  0.000000000000000E+000        
  0.289000000000000       0.463864000000000       0.000000000000000E+000        
   1.00000000000000       0.000000000000000E+000  0.000000000000000E+000        
  0.000000000000000E+000  0.000000000000000E+000  0.000000000000000E+000        
  0.100700000000000       0.250028000000000       0.000000000000000E+000        
  0.000000000000000E+000   1.00000000000000       0.000000000000000E+000        
  0.000000000000000E+000  0.000000000000000E+000  0.000000000000000E+000        
   8.18200000000000       0.000000000000000E+000  0.000000000000000E+000        
  0.000000000000000E+000  0.000000000000000E+000   1.00000000000000             
  0.000000000000000E+000  0.000000000000000E+000  0.000000000000000E+000        
   24.1860000000000       0.000000000000000E+000  0.000000000000000E+000        
  0.000000000000000E+000  0.000000000000000E+000  0.000000000000000E+000        
   1.00000000000000       0.000000000000000E+000  0.000000000000000E+000        
   71.4940000000000       0.000000000000000E+000  0.000000000000000E+000        
  0.000000000000000E+000  0.000000000000000E+000  0.000000000000000E+000        
  0.000000000000000E+000   1.00000000000000       0.000000000000000E+000        
  3.218000000000000E-002  0.000000000000000E+000  0.000000000000000E+000        
  0.000000000000000E+000  0.000000000000000E+000  0.000000000000000E+000        
  0.000000000000000E+000  0.000000000000000E+000   1.00000000000000             
    6    6                                                                      
   1.84800000000000        1.00000000000000       0.000000000000000E+000        
  0.000000000000000E+000  0.000000000000000E+000  0.000000000000000E+000        
  0.000000000000000E+000                                                        
  0.649000000000000       0.000000000000000E+000   1.00000000000000             
  0.000000000000000E+000  0.000000000000000E+000  0.000000000000000E+000        
  0.000000000000000E+000                                                        
  0.228000000000000       0.000000000000000E+000  0.000000000000000E+000        
   1.00000000000000       0.000000000000000E+000  0.000000000000000E+000        
  0.000000000000000E+000                                                        
   8.65600000000000       0.000000000000000E+000  0.000000000000000E+000        
  0.000000000000000E+000   1.00000000000000       0.000000000000000E+000        
  0.000000000000000E+000                                                        
   33.2130000000000       0.000000000000000E+000  0.000000000000000E+000        
  0.000000000000000E+000  0.000000000000000E+000   1.00000000000000             
  0.000000000000000E+000                                                        
  7.660000000000000E-002  0.000000000000000E+000  0.000000000000000E+000        
  0.000000000000000E+000  0.000000000000000E+000  0.000000000000000E+000        
   1.00000000000000                                                             
    4    4                                                                      
   1.41900000000000        1.00000000000000       0.000000000000000E+000        
  0.000000000000000E+000  0.000000000000000E+000                                
  0.485000000000000       0.000000000000000E+000   1.00000000000000             
  0.000000000000000E+000  0.000000000000000E+000                                
   24.6940000000000       0.000000000000000E+000  0.000000000000000E+000        
   1.00000000000000       0.000000000000000E+000                                
  0.187000000000000       0.000000000000000E+000  0.000000000000000E+000        
  0.000000000000000E+000   1.00000000000000                                     
    2    2                                                                      
   1.01100000000000        1.00000000000000       0.000000000000000E+000        
  0.424000000000000       0.000000000000000E+000   1.00000000000000             
          8.00000000    1    5    1    1    1    1    1                         
O #2   0.000000000000000   0.000000000000000  -0.920438648997259                
   16    9                                                                      
   61420.0000000000       9.000000000000001E-005 -2.000000000000000E-005        
  0.000000000000000E+000  0.000000000000000E+000  0.000000000000000E+000        
  0.000000000000000E+000  0.000000000000000E+000  0.000000000000000E+000        
  0.000000000000000E+000                                                        
   9199.00000000000       6.980000000000001E-004 -1.590000000000000E-004        
  0.000000000000000E+000  0.000000000000000E+000  0.000000000000000E+000        
  0.000000000000000E+000  0.000000000000000E+000  0.000000000000000E+000        
  0.000000000000000E+000                                                        
   2091.00000000000       3.664000000000000E-003 -8.290000000000000E-004        
  0.000000000000000E+000  0.000000000000000E+000  0.000000000000000E+000        
  0.000000000000000E+000  0.000000000000000E+000  0.000000000000000E+000        
  0.000000000000000E+000                                                        
   590.900000000000       1.521800000000000E-002 -3.508000000000000E-003        
  0.000000000000000E+000  0.000000000000000E+000  0.000000000000000E+000        
  0.000000000000000E+000  0.000000000000000E+000  0.000000000000000E+000        
  0.000000000000000E+000                                                        
   192.300000000000       5.242300000000000E-002 -1.215600000000000E-002        
  0.000000000000000E+000  0.000000000000000E+000  0.000000000000000E+000        
  0.000000000000000E+000  0.000000000000000E+000  0.000000000000000E+000        
  0.000000000000000E+000                                                        
   69.3200000000000       0.145921000000000      -3.626100000000000E-002        
  0.000000000000000E+000  0.000000000000000E+000  0.000000000000000E+000        
  0.000000000000000E+000  0.000000000000000E+000  0.000000000000000E+000        
  0.000000000000000E+000                                                        
   26.9700000000000       0.305258000000000      -8.299200000000000E-002        
  0.000000000000000E+000  0.000000000000000E+000  0.000000000000000E+000        
  0.000000000000000E+000  0.000000000000000E+000  0.000000000000000E+000        
  0.000000000000000E+000                                                        
   11.1000000000000       0.398508000000000      -0.152090000000000             
  0.000000000000000E+000  0.000000000000000E+000  0.000000000000000E+000        
  0.000000000000000E+000  0.000000000000000E+000  0.000000000000000E+000        
  0.000000000000000E+000                                                        
   4.68200000000000       0.216980000000000      -0.115331000000000             
  0.000000000000000E+000  0.000000000000000E+000  0.000000000000000E+000        
  0.000000000000000E+000  0.000000000000000E+000  0.000000000000000E+000        
  0.000000000000000E+000                                                        
   1.42800000000000       1.759400000000000E-002  0.288979000000000             
   1.00000000000000       0.000000000000000E+000  0.000000000000000E+000        
  0.000000000000000E+000  0.000000000000000E+000  0.000000000000000E+000        
  0.000000000000000E+000                                                        
  0.554700000000000      -2.502000000000000E-003  0.586128000000000             
  0.000000000000000E+000   1.00000000000000       0.000000000000000E+000        
  0.000000000000000E+000  0.000000000000000E+000  0.000000000000000E+000        
  0.000000000000000E+000                                                        
  0.206700000000000       9.540000000000000E-004  0.277624000000000             
  0.000000000000000E+000  0.000000000000000E+000   1.00000000000000             
  0.000000000000000E+000  0.000000000000000E+000  0.000000000000000E+000        
  0.000000000000000E+000                                                        
   12.9740000000000       0.000000000000000E+000  0.000000000000000E+000        
  0.000000000000000E+000  0.000000000000000E+000  0.000000000000000E+000        
   1.00000000000000       0.000000000000000E+000  0.000000000000000E+000        
  0.000000000000000E+000                                                        
   34.9000000000000       0.000000000000000E+000  0.000000000000000E+000        
  0.000000000000000E+000  0.000000000000000E+000  0.000000000000000E+000        
  0.000000000000000E+000   1.00000000000000       0.000000000000000E+000        
  0.000000000000000E+000                                                        
   93.8810000000000       0.000000000000000E+000  0.000000000000000E+000        
  0.000000000000000E+000  0.000000000000000E+000  0.000000000000000E+000        
  0.000000000000000E+000  0.000000000000000E+000   1.00000000000000             
  0.000000000000000E+000                                                        
  6.959000000000000E-002  0.000000000000000E+000  0.000000000000000E+000        
  0.000000000000000E+000  0.000000000000000E+000  0.000000000000000E+000        
  0.000000000000000E+000  0.000000000000000E+000  0.000000000000000E+000        
   1.00000000000000                                                             
   10    8                                                                      
   63.4200000000000       6.044000000000000E-003  0.000000000000000E+000        
  0.000000000000000E+000  0.000000000000000E+000  0.000000000000000E+000        
  0.000000000000000E+000  0.000000000000000E+000  0.000000000000000E+000        
   14.6600000000000       4.179900000000000E-002  0.000000000000000E+000        
  0.000000000000000E+000  0.000000000000000E+000  0.000000000000000E+000        
  0.000000000000000E+000  0.000000000000000E+000  0.000000000000000E+000        
   4.45900000000000       0.161143000000000       0.000000000000000E+000        
  0.000000000000000E+000  0.000000000000000E+000  0.000000000000000E+000        
  0.000000000000000E+000  0.000000000000000E+000  0.000000000000000E+000        
   1.53100000000000       0.356731000000000        1.00000000000000             
  0.000000000000000E+000  0.000000000000000E+000  0.000000000000000E+000        
  0.000000000000000E+000  0.000000000000000E+000  0.000000000000000E+000        
  0.530200000000000       0.448309000000000       0.000000000000000E+000        
   1.00000000000000       0.000000000000000E+000  0.000000000000000E+000        
  0.000000000000000E+000  0.000000000000000E+000  0.000000000000000E+000        
  0.175000000000000       0.244940000000000       0.000000000000000E+000        
  0.000000000000000E+000   1.00000000000000       0.000000000000000E+000        
  0.000000000000000E+000  0.000000000000000E+000  0.000000000000000E+000        
   14.4750000000000       0.000000000000000E+000  0.000000000000000E+000        
  0.000000000000000E+000  0.000000000000000E+000   1.00000000000000             
  0.000000000000000E+000  0.000000000000000E+000  0.000000000000000E+000        
   42.7300000000000       0.000000000000000E+000  0.000000000000000E+000        
  0.000000000000000E+000  0.000000000000000E+000  0.000000000000000E+000        
   1.00000000000000       0.000000000000000E+000  0.000000000000000E+000        
   126.140000000000       0.000000000000000E+000  0.000000000000000E+000        
  0.000000000000000E+000  0.000000000000000E+000  0.000000000000000E+000        
  0.000000000000000E+000   1.00000000000000       0.000000000000000E+000        
  5.348000000000000E-002  0.000000000000000E+000  0.000000000000000E+000        
  0.000000000000000E+000  0.000000000000000E+000  0.000000000000000E+000        
  0.000000000000000E+000  0.000000000000000E+000   1.00000000000000             
    6    6                                                                      
   3.77500000000000        1.00000000000000       0.000000000000000E+000        
  0.000000000000000E+000  0.000000000000000E+000  0.000000000000000E+000        
  0.000000000000000E+000                                                        
   1.30000000000000       0.000000000000000E+000   1.00000000000000             
  0.000000000000000E+000  0.000000000000000E+000  0.000000000000000E+000        
  0.000000000000000E+000                                                        
  0.444000000000000       0.000000000000000E+000  0.000000000000000E+000        
   1.00000000000000       0.000000000000000E+000  0.000000000000000E+000        
  0.000000000000000E+000                                                        
   14.9270000000000       0.000000000000000E+000  0.000000000000000E+000        
  0.000000000000000E+000   1.00000000000000       0.000000000000000E+000        
  0.000000000000000E+000                                                        
   57.5440000000000       0.000000000000000E+000  0.000000000000000E+000        
  0.000000000000000E+000  0.000000000000000E+000   1.00000000000000             
  0.000000000000000E+000                                                        
  0.154000000000000       0.000000000000000E+000  0.000000000000000E+000        
  0.000000000000000E+000  0.000000000000000E+000  0.000000000000000E+000        
   1.00000000000000                                                             
    4    4                                                                      
   2.66600000000000        1.00000000000000       0.000000000000000E+000        
  0.000000000000000E+000  0.000000000000000E+000                                
  0.859000000000000       0.000000000000000E+000   1.00000000000000             
  0.000000000000000E+000  0.000000000000000E+000                                
   26.4830000000000       0.000000000000000E+000  0.000000000000000E+000        
   1.00000000000000       0.000000000000000E+000                                
  0.324000000000000       0.000000000000000E+000  0.000000000000000E+000        
  0.000000000000000E+000   1.00000000000000                                     
    2    2                                                                      
   1.84600000000000        1.00000000000000       0.000000000000000E+000        
  0.714000000000000       0.000000000000000E+000   1.00000000000000             
FINISH                                                                          
 
********************************************************************************
 ONE- AND TWO-ELECTRON INTEGRALS OVER SYMMETRY-ADAPTED AOS ARE CALCULATED.

  SPHERICAL HARMONICS ARE USED.
  
  INTEGRALS LESS THAN  0.10E-13 ARE NEGLECTED.

  NUCLEAR REPULSION ENERGY :   23.3845880381 A.U.
  @MOLECU-I, ONE ELECTRON INTEGRALS (CPU/WALL):        0.06/       0.06 SECONDS.
  @TWOEL-I,    4616470 INTEGRALS OF SYMMETRY TYPE  I I I I
  @TWOEL-I,   19798842 INTEGRALS OF SYMMETRY TYPE  I J I J
  @TWOEL-I,   10434785 INTEGRALS OF SYMMETRY TYPE  I I J J
  @TWOEL-I,   14643058 INTEGRALS OF SYMMETRY TYPE  I J K L
  @TWOEL-I, TOTAL NUMBER OF 2-E INTEGRALS   49493155.
  @MOLECU-I, TWO ELECTRON INTEGRALS (CPU/WALL):      188.01/      23.73 SECONDS.
 @CHECKOUT-I, Total execution time (CPU/WALL):      188.08/      23.81 seconds.

Running with 14 threads/proc

--executable xvmol finished with status     0 in       23.83 seconds (walltime).
 --invoking executable--
/nfs/workspaces/public/cfour_mpi/bin/xvmol2ja
 @GETMEM-I,  Allocated    3814 MB of main memory.
 @CHECKOUT-I, Total execution time (CPU/WALL):        0.12/       0.06 seconds.
--executable xvmol2ja finished with status     0 in        0.08 seconds (walltime).
 --invoking executable--
/nfs/workspaces/public/cfour_mpi/bin/xvprop
 @GETMEM-I,  Allocated    3814 MB of main memory.
   Property integrals will be calculated.
    --------------------------------------------------------------
                                   Property evaluated at 
    Property type                X             Y             Z
    --------------------------------------------------------------
    Dipole moment               ----          ----          ----  
    Quadrupole moment           ----          ----          ----  
    Octopole moment             ----          ----          ----  
    Relativisitic corr.         ----          ----          ----  
    Second moment            0.0000000     0.0000000     0.0000000
    Electron density         0.0000000     0.0000000     1.1321953
    Electron density         0.0000000     0.0000000    -0.9204386
    Field gradient           0.0000000     0.0000000     1.1321953
    Field gradient           0.0000000     0.0000000    -0.9204386
    Potential                0.0000000     0.0000000     1.1321953
    Potential                0.0000000     0.0000000    -0.9204386
    --------------------------------------------------------------
 @CHECKOUT-I, Total execution time (CPU/WALL):        1.42/       1.45 seconds.
--executable xvprop finished with status     0 in        1.47 seconds (walltime).
 --invoking executable--
/nfs/workspaces/public/cfour_mpi/bin/xvscf
  There are  218 functions in the AO basis.

  There are 4 irreducible representations.

       Irrep        # of functions
         1                 86
         2                 52
         3                 52
         4                 28


  Parameters for SCF calculation: 
        SCF reference function:  RHF  
  Maximum number of iterations:  150
     Full symmetry point group: CXv 
     Computational point group: C2v 
        Initial density matrix: MOREAD                 
     SCF convergence tolerance: 10**(-10)
  DIIS convergence acceleration:  ON
          Latest start for DIIS:   8
                     DIIS order:   6

  Memory information:    2523578 words required.
  Fock matrices are constructed from AO integral file.
 @GETMEM-I,  Allocated      19 MB of main memory.
  Initialization and symmetry analysis required      0.001 seconds.

  Adding electric field perturbation to one-electron Hamiltonian.
  Field direction     : Z
  Field strength      : -0.0002000 a.u.

  @INITGES-I, Occupancies from core Hamiltonian:

          Alpha population by irrep:   5    1    1    0
           Beta population by irrep:   5    1    1    0


 total no. of electrons in initial guess :  0.000000000000000E+000
  --------------------------------------------------------------------
  Iteration         Total Energy            Largest Density Difference
  --------------------------------------------------------------------
       0            23.384473970653545              0.0000000000D+00
   current occupation vector 
     5  1  1  0
     5  1  1  0
       1           -91.443655289588676              0.1900549754D+02
   current occupation vector 
     5  1  1  0
     5  1  1  0
       2           -95.381409268491481              0.4326585965D+02
   current occupation vector 
     5  1  1  0
     5  1  1  0
       3          -103.234768833670628              0.4324715787D+02
   current occupation vector 
     5  1  1  0
     5  1  1  0
       4          -100.539173994828417              0.8460062798D+01
   current occupation vector 
     5  1  1  0
     5  1  1  0
       5          -104.080737381243296              0.8447858957D+01
   current occupation vector 
     5  1  1  0
     5  1  1  0
       6          -101.253939344220726              0.5767542782D+01
   current occupation vector 
     5  1  1  0
     5  1  1  0
       7          -103.593172892999917              0.5445805716D+01
   current occupation vector 
     5  1  1  0
     5  1  1  0
       8          -100.790363698430482              0.5424978890D+01
   current occupation vector 
     5  1  1  0
     5  1  1  0
       9          -111.101659822585901              0.3982437737D+01
   current occupation vector 
     5  1  1  0
     5  1  1  0
      10          -112.427481684017692              0.9090565542D+00
   current occupation vector 
     5  1  1  0
     5  1  1  0
      11          -112.782353866078665              0.4587860015D+00
   current occupation vector 
     5  1  1  0
     5  1  1  0
      12          -112.790055888324616              0.8261803718D-01
   current occupation vector 
     5  1  1  0
     5  1  1  0
      13          -112.790318289638776              0.1935536341D-01
   current occupation vector 
     5  1  1  0
     5  1  1  0
      14          -112.790363523153729              0.1078762531D-01
   current occupation vector 
     5  1  1  0
     5  1  1  0
      15          -112.790364308067353              0.1741229626D-02
   current occupation vector 
     5  1  1  0
     5  1  1  0
      16          -112.790364318495790              0.1240047177D-03
   current occupation vector 
     5  1  1  0
     5  1  1  0
      17          -112.790364318721316              0.2310957437D-04
   current occupation vector 
     5  1  1  0
     5  1  1  0
      18          -112.790364318730752              0.2853744706D-05
   current occupation vector 
     5  1  1  0
     5  1  1  0
      19          -112.790364318730127              0.7927144454D-06
   current occupation vector 
     5  1  1  0
     5  1  1  0
      20          -112.790364318729729              0.1052354441D-06
   current occupation vector 
     5  1  1  0
     5  1  1  0
      21          -112.790364318730866              0.7892560827D-08
   current occupation vector 
     5  1  1  0
     5  1  1  0
      22          -112.790364318730269              0.8147851283D-09
   current occupation vector 
     5  1  1  0
     5  1  1  0
      23          -112.790364318730411              0.1862017207D-09
   current occupation vector 
     5  1  1  0
     5  1  1  0
      24          -112.790364318730923              0.1295287766D-09
   current occupation vector 
     5  1  1  0
     5  1  1  0
      25          -112.790364318730070              0.1276483363D-09
   current occupation vector 
     5  1  1  0
     5  1  1  0
      26          -112.790364318729985              0.1911653058D-09
   current occupation vector 
     5  1  1  0
     5  1  1  0
      27          -112.790364318730838              0.1011862538D-09
   current occupation vector 
     5  1  1  0
     5  1  1  0

  SCF has converged.

 Density matrix saved to file den.dat
 total electron number:   13.9999999999999     
     E(SCF)=      -112.790364318731037              0.5240502476D-10

  Eigenvector printing suppressed.

 @PUTMOS-I, Writing converged MOs to NEWMOS. 
 @PUTMOS-I, Symmetry   1 Full Blocks 21 Partial Blocksize   2
 @PUTMOS-I, Symmetry   2 Full Blocks 13 Partial Blocksize   0
 @PUTMOS-I, Symmetry   3 Full Blocks 13 Partial Blocksize   0
 @PUTMOS-I, Symmetry   4 Full Blocks  7 Partial Blocksize   0
 @PUTFOCK-I, Writing converged Fock matrix to NEWFOCK. 
 @PUTFOCK-I, Symmetry   1 Full Blocks 21 Partial Blocksize   2
 @PUTFOCK-I, Symmetry   2 Full Blocks 13 Partial Blocksize   0
 @PUTFOCK-I, Symmetry   3 Full Blocks 13 Partial Blocksize   0
 @PUTFOCK-I, Symmetry   4 Full Blocks  7 Partial Blocksize   0


 
  ORBITAL EIGENVALUES (ALPHA)  (1H = 27.2113834 eV)

       MO #        E(hartree)               E(eV)           FULLSYM    COMPSYM
       ----   --------------------   --------------------   -------   ---------
    1     1         -20.6633116836        -562.2772965367     SG+        A1 (1)
    2     2         -11.3411830019        -308.6092788753     SG+        A1 (1)
    3     3          -1.5512989365         -42.2129901293     SG+        A1 (1)
    4     4          -0.8083622652         -21.9966555252     SG+        A1 (1)
    5    87          -0.6593606719         -17.9421160416      PI        B1 (2)
    6   139          -0.6593606719         -17.9421160416      PI        B2 (3)
    7     5          -0.5498979791         -14.9634847415     SG+        A1 (1)
  +++++++++++++++++++++++++++++++++++++++++++++++++++++++++++++++++++++++++++++
    8     6           0.0597996781           1.6272319680     SG+        A1 (1)
    9    88           0.0634375814           1.7262243504      PI        B1 (2)
   10   140           0.0634375814           1.7262243504      PI        B2 (3)
   11     7           0.0744137768           2.0249018096     SG+        A1 (1)
   12    89           0.1496701604           4.0727321169      PI        B1 (2)
   13   141           0.1496701604           4.0727321169      PI        B2 (3)
   14     8           0.1565989968           4.2612753415     SG+        A1 (1)
   15    90           0.1700734155           4.6279329152      PI        B1 (2)
   16   142           0.1700734155           4.6279329152      PI        B2 (3)
   17   191           0.2276952834           6.1959036554      DE        A2 (4)
   18     9           0.2276952834           6.1959036554      DE        A1 (1)
   19    10           0.2278530965           6.2001979676     SG+        A1 (1)
   20    11           0.3013653668           8.2005685397     SG+        A1 (1)
   21   143           0.3250819223           8.8459288244      PI        B2 (3)
   22    91           0.3250819223           8.8459288244      PI        B1 (2)
   23    12           0.3928498645          10.6899882821     SG+        A1 (1)
   24   144           0.3969419594          10.8013398446      PI        B2 (3)
   25    92           0.3969419594          10.8013398446      PI        B1 (2)
   26    13           0.5084572233          13.8358244467     SG+        A1 (1)
   27   192           0.5317954714          14.4708904635      DE        A2 (4)
   28    14           0.5317954714          14.4708904635      DE        A1 (1)
   29    93           0.6220243740          16.9261437245      PI        B1 (2)
   30   145           0.6220243740          16.9261437245      PI        B2 (3)
   31    15           0.6546295312          17.8133751574     SG+        A1 (1)
   32   146           0.7492892146          20.3891960963      PH        B2 (3)
   33    94           0.7492892146          20.3891960963      PH        B1 (2)
   34    16           0.7696512639          20.9432756260      DE        A1 (1)
   35   193           0.7696512639          20.9432756261      DE        A2 (4)
   36    17           0.7814479464          21.2642796763     SG+        A1 (1)
   37   147           0.8284689371          22.5437858811      PI        B2 (3)
   38    95           0.8284689371          22.5437858811      PI        B1 (2)
   39    18           0.8740839614          23.7850337976     SG+        A1 (1)
   40   148           0.8780176086          23.8920737807      PI        B2 (3)
   41    96           0.8780176086          23.8920737807      PI        B1 (2)
   42   194           0.8939237624          24.3249022293      DE        A2 (4)
   43    19           0.8939237624          24.3249022293      DE        A1 (1)
   44    20           0.9291874888          25.2844770078     SG+        A1 (1)
   45   149           1.0868531751          29.5747784459      PI        B2 (3)
   46    97           1.0868531751          29.5747784459      PI        B1 (2)
   47    21           1.2318263295          33.5196985354     SG+        A1 (1)
   48    98           1.4506889608          39.4752535056      PH        B1 (2)
   49   150           1.4506889608          39.4752535056      PH        B2 (3)
   50    22           1.4937296374          40.6464498598     SG+        A1 (1)
   51   195           1.5115237300          41.1306517363      DE        A2 (4)
   52    23           1.5115237300          41.1306517363      DE        A1 (1)
   53    99           1.5470756217          42.0980678920      PI        B1 (2)
   54   151           1.5470756217          42.0980678920      PI        B2 (3)
   55    24           1.6646239153          45.2967195749     SG+        A1 (1)
   56    25           1.7597412971          47.8849951191     SG+        A1 (1)
   57   196           1.7732969177          48.2538623100      DE        A2 (4)
   58    26           1.7732969177          48.2538623100      DE        A1 (1)
   59   100           1.8376164837          50.0040866793      PI        B1 (2)
   60   152           1.8376164837          50.0040866793      PI        B2 (3)
   61   153           1.9530860991          53.1461746555      PI        B2 (3)
   62   101           1.9530860991          53.1461746555      PI        B1 (2)
   63   197           2.1082157026          57.3674657742      PI        A2 (4)
   64    27           2.1082157026          57.3674657742      PI        A1 (1)
   65    28           2.1614789955          58.8168336580     SG+        A1 (1)
   66    29           2.2049766035          60.0004637447      DE        A1 (1)
   67   198           2.2049766035          60.0004637447      DE        A2 (4)
   68   102           2.2551272904          61.3651333153      PH        B1 (2)
   69   154           2.2551272904          61.3651333153      PH        B2 (3)
   70    30           2.3199818518          63.1299156516     SG+        A1 (1)
   71   155           2.3331214157          63.4874613625      PI        B2 (3)
   72   103           2.3331214157          63.4874613625      PI        B1 (2)
   73   199           2.3706081487          64.5075272262      DE        A2 (4)
   74    31           2.3706081487          64.5075272262      DE        A1 (1)
   75   156           2.3788873130          64.7328147382      PH        B2 (3)
   76   104           2.3788873130          64.7328147382      PH        B1 (2)
   77    32           2.4991845921          68.0062701235     SG+        A1 (1)
   78   157           2.6047815279          70.8797088297      PI        B2 (3)
   79   105           2.6047815279          70.8797088297      PI        B1 (2)
   80   106           2.8745336351          78.2200368411      PI        B1 (2)
   81   158           2.8745336351          78.2200368411      PI        B2 (3)
   82    33           3.0005676495          81.6495967276     SG+        A1 (1)
   83   200           3.0443501146          82.8409781719      DE        A2 (4)
   84    34           3.0443501146          82.8409781721      DE        A1 (1)
   85    35           3.4581186804          94.1001932556     SG+        A1 (1)
   86    36           3.7323617815         101.5627274231      PI        A1 (1)
   87   201           3.7323617815         101.5627274231      PI        A2 (4)
   88   107           3.7600836679         102.3170783037      PI        B1 (2)
   89   159           3.7600836679         102.3170783037      PI        B2 (3)
   90    37           3.9619293466         107.8095784531     SG+        A1 (1)
   91   160           4.0786374674         110.9853678747      PH        B2 (3)
   92   108           4.0786374674         110.9853678747      PH        B1 (2)
   93   202           4.1754832640         113.6206759767      DE        A2 (4)
   94    38           4.1754832640         113.6206759767      DE        A1 (1)
   95   109           4.2111152967         114.5902728788      PI        B1 (2)
   96   161           4.2111152967         114.5902728788      PI        B2 (3)
   97    39           4.2856214639         116.6176887612     SG+        A1 (1)
   98   162           4.3315294454         117.8669084482      PH        B2 (3)
   99   110           4.3315294454         117.8669084483      PH        B1 (2)
  100   203           4.4003946402         119.7408256650      DE        A2 (4)
  101    40           4.4003946402         119.7408256650      DE        A1 (1)
  102    41           4.6036369325         125.2713296039     SG+        A1 (1)
  103   163           4.7686117799         129.7605234288      PI        B2 (3)
  104   111           4.7686117799         129.7605234289      PI        B1 (2)
  105    42           4.9733895399         135.3328095687     SG+        A1 (1)
  106    43           5.1741620629         140.7961076674      DE        A1 (1)
  107   204           5.1741620629         140.7961076675      DE        A2 (4)
  108   164           5.1921115797         141.2845388519      PI        B2 (3)
  109   112           5.1921115797         141.2845388519      PI        B1 (2)
  110   113           5.8641859988         159.5726135416      PI        B1 (2)
  111   165           5.8641859988         159.5726135416      PI        B2 (3)
  112   205           5.9073461677         160.7470614461      PI        A2 (4)
  113    44           5.9073461677         160.7470614461      PI        A1 (1)
  114    45           6.0025826782         163.3385786471     SG+        A1 (1)
  115   166           6.1797901106         168.1606380308      PH        B2 (3)
  116   114           6.1797901106         168.1606380308      PH        B1 (2)
  117    46           6.2231555181         169.3406707612     SG+        A1 (1)
  118   206           6.3169546274         171.8930742869      DE        A2 (4)
  119    47           6.3169546274         171.8930742869      DE        A1 (1)
  120   115           6.3409904236         172.5471215525      PI        B1 (2)
  121   167           6.3409904236         172.5471215525      PI        B2 (3)
  122   168           6.4526402108         175.5852667195      PH        B2 (3)
  123   116           6.4526402108         175.5852667195      PH        B1 (2)
  124   207           6.6175120671         180.0716580127      DE        A2 (4)
  125    48           6.6175120671         180.0716580129      DE        A1 (1)
  126    49           7.1156210528         193.6258925973     SG+        A1 (1)
  127    50           7.5199086862         204.6271183927      DE        A1 (1)
  128   208           7.5199086862         204.6271183929      DE        A2 (4)
  129   169           7.5996373365         206.7966452648      PI        B2 (3)
  130   117           7.5996373365         206.7966452648      PI        B1 (2)
  131    51           7.8965260822         214.8753987510     SG+        A1 (1)
  132    52           8.3995146318         228.5624130199     SG+        A1 (1)
  133   118           8.6204817810         234.5752348355      PI        B1 (2)
  134   170           8.6204817810         234.5752348356      PI        B2 (3)
  135   119          10.1229309776         275.4589559628      PI        B1 (2)
  136   171          10.1229309776         275.4589559629      PI        B2 (3)
  137    53          10.3486727637         281.6017022533     SG+        A1 (1)
  138   209          10.6006948340         288.4595714334      PI        A2 (4)
  139    54          10.6006948340         288.4595714334      PI        A1 (1)
  140   172          10.9147579519         297.0056633474      PH        B2 (3)
  141   120          10.9147579519         297.0056633474      PH        B1 (2)
  142   210          11.1795101522         304.2099369749      DE        A2 (4)
  143    55          11.1795101522         304.2099369749      DE        A1 (1)
  144    56          11.2121671986         305.0985803867     SG+        A1 (1)
  145   121          11.3941683678         310.0510839796      PI        B1 (2)
  146   173          11.3941683678         310.0510839796      PI        B2 (3)
  147   122          11.8560938032         322.6207141040      PH        B1 (2)
  148   174          11.8560938032         322.6207141040      PH        B2 (3)
  149    57          11.8659896782         322.8899945547     SG+        A1 (1)
  150    58          12.3367823802         335.7009152705      DE        A1 (1)
  151   211          12.3367823802         335.7009152705      DE        A2 (4)
  152   123          12.7372539573         346.5983008966      PI        B1 (2)
  153   175          12.7372539573         346.5983008966      PI        B2 (3)
  154   212          12.9147766891         351.4289400128      DE        A2 (4)
  155    59          12.9147766891         351.4289400128      DE        A1 (1)
  156    60          13.5028443389         367.4310742971     SG+        A1 (1)
  157   124          14.4256589387         392.5421361790      PI        B1 (2)
  158   176          14.4256589387         392.5421361790      PI        B2 (3)
  159    61          15.7789841954         429.3679886039     SG+        A1 (1)
  160    62          18.1249346630         493.2045462141     SG+        A1 (1)
  161   125          19.4944605944         530.4712414102      PI        B1 (2)
  162   177          19.4944605944         530.4712414105      PI        B2 (3)
  163    63          20.8440231930         567.1947067043     SG+        A1 (1)
  164    64          26.5859453599         723.4403522396      DE        A1 (1)
  165   213          26.5859453599         723.4403522396      DE        A2 (4)
  166   126          27.1478964138         738.7318178181      PI        B1 (2)
  167   178          27.1478964138         738.7318178181      PI        B2 (3)
  168    65          28.4241793933         773.4612433006     SG+        A1 (1)
  169   127          33.8212764557         920.3237207126      PI        B1 (2)
  170   179          33.8212764557         920.3237207134      PI        B2 (3)
  171    66          35.1678989845         956.9671826394     SG+        A1 (1)
  172    67          37.0553546964        1008.3274636673     SG+        A1 (1)
  173   214          47.1376465887        1282.6805738986      DE        A2 (4)
  174    68          47.1376465887        1282.6805738986      DE        A1 (1)
  175   128          47.8486012316        1302.0266332676      PI        B1 (2)
  176   180          47.8486012316        1302.0266332676      PI        B2 (3)
  177    69          48.6815387735        1324.6920160673     SG+        A1 (1)
  178    70          64.3334004815        1750.6008259269     SG+        A1 (1)
  179   129          66.9286873184        1821.2221710794      PI        B1 (2)
  180   181          66.9286873184        1821.2221710796      PI        B2 (3)
  181    71          67.9471555250        1848.9360999298     SG+        A1 (1)
  182   130          98.6982620875        2685.7162505767      PH        B1 (2)
  183   182          98.6982620875        2685.7162505767      PH        B2 (3)
  184   215          98.7255537729        2686.4588950907      DE        A2 (4)
  185    72          98.7255537729        2686.4588950907      DE        A1 (1)
  186   183          98.8002513588        2688.4915197397      PI        B2 (3)
  187   131          98.8002513588        2688.4915197397      PI        B1 (2)
  188    73          98.8131181666        2688.8416433800     SG+        A1 (1)
  189   132         103.2865764410        2810.5706316102      PH        B1 (2)
  190   184         103.2865764410        2810.5706316102      PH        B2 (3)
  191   216         103.3432690055        2812.1133147172      DE        A2 (4)
  192    74         103.3432690056        2812.1133147200      DE        A1 (1)
  193   133         103.3737700583        2812.9432905610      PI        B1 (2)
  194   185         103.3737700583        2812.9432905610      PI        B2 (3)
  195    75         103.4483329535        2814.9722500883     SG+        A1 (1)
  196    76         115.2268381975        3135.4816721624      DE        A1 (1)
  197   217         115.2268381975        3135.4816721625      DE        A2 (4)
  198   134         115.4999475830        3142.9133563606      PI        B1 (2)
  199   186         115.4999475830        3142.9133563606      PI        B2 (3)
  200    77         116.1228738656        3159.8640422667     SG+        A1 (1)
  201   135         117.0661585948        3185.5321246886      PI        B1 (2)
  202   187         117.0661585948        3185.5321246896      PI        B2 (3)
  203    78         118.2927975137        3218.9106666036     SG+        A1 (1)
  204    79         123.0476304478        3348.2962485773     SG+        A1 (1)
  205   218         198.5904096945        5403.9197777598      DE        A2 (4)
  206    80         198.5904096945        5403.9197777598      DE        A1 (1)
  207   136         198.9779264170        5414.4646438713      PI        B1 (2)
  208   188         198.9779264170        5414.4646438713      PI        B2 (3)
  209    81         199.4037394107        5426.0516044987     SG+        A1 (1)
  210    82         216.8034228936        5899.5210627914     SG+        A1 (1)
  211   137         225.3340454663        6131.6511042564      PI        B1 (2)
  212   189         225.3340454663        6131.6511042567      PI        B2 (3)
  213    83         226.1617732606        6154.1747226188     SG+        A1 (1)
  214   138         395.5219041163       10762.6981760076      PI        B1 (2)
  215   190         395.5219041164       10762.6981760091      PI        B2 (3)
  216    84         396.4997939482       10789.3079111464     SG+        A1 (1)
  217    85         509.5437747241       13865.3910131007     SG+        A1 (1)
  218    86         895.6399133839       24371.6010714324     SG+        A1 (1)


  VSCF finished.

 @CHECKOUT-I, Total execution time (CPU/WALL):       49.71/       9.59 seconds.
--executable xvscf finished with status     0 in        9.62 seconds (walltime).
 --invoking executable--
/nfs/workspaces/public/cfour_mpi/bin/xvtran
 @GETMEM-I,  Allocated    3814 MB of main memory.
  Full RHF integral transformation
  Transformation of IIII integrals :
  1 pass through the AO integral file was required.
     4616470 AO integrals were read.
     8841859 MO integrals were written to HF2.
  Transformation of IIJJ integrals :
  1 pass through the AO integral file was required.
    10434785 AO integrals were read.
    14653481 MO integrals were written to HF2.
  Transformation of IJIJ integrals :
  1 pass through the AO integral file was required.
    19798842 AO integrals were read.
    27600813 MO integrals were written to HF2.
  Transformation of IJKL integrals :
  1 pass through the AO integral file was required.
    14643058 AO integrals were read.
    18647737 MO integrals were written to HF2.
  Summary of active molecular orbitals: 
------------------------------------------------------------------------
 
  Index      Eigenvalue    Symmetry    Index      Eigenvalue    Symmetry
------------------------------------------------------------------------
     1       -20.6633117        1       110         4.2111153        2
     2       -11.3411830        1       111         4.3315294        2
     3        -1.5512989        1       112         4.7686118        2
     4        -0.8083623        1       113         5.1921116        2
     5        -0.5498980        1       114         5.8641860        2
     6        -0.6593607        2       115         6.1797901        2
     7        -0.6593607        3       116         6.3409904        2
     8         0.0597997        1       117         6.4526402        2
     9         0.0744138        1       118         7.5996373        2
    10         0.1565990        1       119         8.6204818        2
    11         0.2276953        1       120        10.1229310        2
    12         0.2278531        1       121        10.9147580        2
    13         0.3013654        1       122        11.3941684        2
    14         0.3928499        1       123        11.8560938        2
    15         0.5084572        1       124        12.7372540        2
    16         0.5317955        1       125        14.4256589        2
    17         0.6546295        1       126        19.4944606        2
    18         0.7696513        1       127        27.1478964        2
    19         0.7814479        1       128        33.8212765        2
    20         0.8740840        1       129        47.8486012        2
    21         0.8939238        1       130        66.9286873        2
    22         0.9291875        1       131        98.6982621        2
    23         1.2318263        1       132        98.8002514        2
    24         1.4937296        1       133       103.2865764        2
    25         1.5115237        1       134       103.3737701        2
    26         1.6646239        1       135       115.4999476        2
    27         1.7597413        1       136       117.0661586        2
    28         1.7732969        1       137       198.9779264        2
    29         2.1082157        1       138       225.3340455        2
    30         2.1614790        1       139       395.5219041        2
    31         2.2049766        1       140         0.0634376        3
    32         2.3199819        1       141         0.1496702        3
    33         2.3706081        1       142         0.1700734        3
    34         2.4991846        1       143         0.3250819        3
    35         3.0005676        1       144         0.3969420        3
    36         3.0443501        1       145         0.6220244        3
    37         3.4581187        1       146         0.7492892        3
    38         3.7323618        1       147         0.8284689        3
    39         3.9619293        1       148         0.8780176        3
    40         4.1754833        1       149         1.0868532        3
    41         4.2856215        1       150         1.4506890        3
    42         4.4003946        1       151         1.5470756        3
    43         4.6036369        1       152         1.8376165        3
    44         4.9733895        1       153         1.9530861        3
    45         5.1741621        1       154         2.2551273        3
    46         5.9073462        1       155         2.3331214        3
    47         6.0025827        1       156         2.3788873        3
    48         6.2231555        1       157         2.6047815        3
    49         6.3169546        1       158         2.8745336        3
    50         6.6175121        1       159         3.7600837        3
    51         7.1156211        1       160         4.0786375        3
    52         7.5199087        1       161         4.2111153        3
    53         7.8965261        1       162         4.3315294        3
    54         8.3995146        1       163         4.7686118        3
    55        10.3486728        1       164         5.1921116        3
    56        10.6006948        1       165         5.8641860        3
    57        11.1795102        1       166         6.1797901        3
    58        11.2121672        1       167         6.3409904        3
    59        11.8659897        1       168         6.4526402        3
    60        12.3367824        1       169         7.5996373        3
    61        12.9147767        1       170         8.6204818        3
    62        13.5028443        1       171        10.1229310        3
    63        15.7789842        1       172        10.9147580        3
    64        18.1249347        1       173        11.3941684        3
    65        20.8440232        1       174        11.8560938        3
    66        26.5859454        1       175        12.7372540        3
    67        28.4241794        1       176        14.4256589        3
    68        35.1678990        1       177        19.4944606        3
    69        37.0553547        1       178        27.1478964        3
    70        47.1376466        1       179        33.8212765        3
    71        48.6815388        1       180        47.8486012        3
    72        64.3334005        1       181        66.9286873        3
    73        67.9471555        1       182        98.6982621        3
    74        98.7255538        1       183        98.8002514        3
    75        98.8131182        1       184       103.2865764        3
    76       103.3432690        1       185       103.3737701        3
    77       103.4483330        1       186       115.4999476        3
    78       115.2268382        1       187       117.0661586        3
    79       116.1228739        1       188       198.9779264        3
    80       118.2927975        1       189       225.3340455        3
    81       123.0476304        1       190       395.5219041        3
    82       198.5904097        1       191         0.2276953        4
    83       199.4037394        1       192         0.5317955        4
    84       216.8034229        1       193         0.7696513        4
    85       226.1617733        1       194         0.8939238        4
    86       396.4997939        1       195         1.5115237        4
    87       509.5437747        1       196         1.7732969        4
    88       895.6399134        1       197         2.1082157        4
    89         0.0634376        2       198         2.2049766        4
    90         0.1496702        2       199         2.3706081        4
    91         0.1700734        2       200         3.0443501        4
    92         0.3250819        2       201         3.7323618        4
    93         0.3969420        2       202         4.1754833        4
    94         0.6220244        2       203         4.4003946        4
    95         0.7492892        2       204         5.1741621        4
    96         0.8284689        2       205         5.9073462        4
    97         0.8780176        2       206         6.3169546        4
    98         1.0868532        2       207         6.6175121        4
    99         1.4506890        2       208         7.5199087        4
   100         1.5470756        2       209        10.6006948        4
   101         1.8376165        2       210        11.1795102        4
   102         1.9530861        2       211        12.3367824        4
   103         2.2551273        2       212        12.9147767        4
   104         2.3331214        2       213        26.5859454        4
   105         2.3788873        2       214        47.1376466        4
   106         2.6047815        2       215        98.7255538        4
   107         2.8745336        2       216       103.3432690        4
   108         3.7600837        2       217       115.2268382        4
   109         4.0786375        2       218       198.5904097        4
------------------------------------------------------------------------
  -20.6633116836189       -11.3411830019379       -1.55129893650697     
 -0.808362265229264      -0.549897979146929      -0.659360671886187     
 -0.659360671886162       5.979967810135283E-002  7.441377675875011E-002
  0.156598996782742       0.227695283415386       0.227853096496337     
  0.301365366806510       0.392849864520221       0.508457223337070     
  0.531795471429684       0.654629531161919       0.769651263891593     
  0.781447946388930       0.874083961405880       0.893923762409174     
  0.929187488783552        1.23182632954417        1.49372963742044     
   1.51152373003881        1.66462391525840        1.75974129705903     
   1.77329691771636        2.10821570263202        2.16147899551563     
   2.20497660345679        2.31998185184336        2.37060814872942     
   2.49918459211834        3.00056764947916        3.04435011459710     
   3.45811868041801        3.73236178147000        3.96192934656437     
   4.17548326399004        4.28562146389170        4.40039464017011     
   4.60363693247089        4.97338953993502        5.17416206290328     
   5.90734616771017        6.00258267821404        6.22315551811308     
   6.31695462741275        6.61751206713199        7.11562105281684     
   7.51990868618400        7.89652608220490        8.39951463180296     
   10.3486727636689        10.6006948339628        11.1795101521710     
   11.2121671986263        11.8659896782284        12.3367823802185     
   12.9147766891114        13.5028443389299        15.7789841954114     
[...]
 Convergence information after     8 iterations: 
 Largest element of residual vector : -0.19407069E-04.
 Largest element of DIIS residual   :  0.15887086E-04.
 Convergence information after     9 iterations: 
 Largest element of residual vector :  0.68496379E-05.
 Largest element of DIIS residual   :  0.43444180E-05.
 Convergence information after    10 iterations: 
 Largest element of residual vector :  0.33315262E-05.
 Largest element of DIIS residual   :  0.21024563E-05.
 Convergence information after    11 iterations: 
 Largest element of residual vector :  0.11775548E-05.
 Largest element of DIIS residual   :  0.59163672E-06.
 Convergence information after    12 iterations: 
 Largest element of residual vector :  0.47453795E-06.
 Largest element of DIIS residual   :  0.28585631E-06.
 Convergence information after    13 iterations: 
 Largest element of residual vector :  0.20721444E-06.
 Largest element of DIIS residual   :  0.17252194E-06.
 Convergence information after    14 iterations: 
 Largest element of residual vector :  0.12522935E-06.
 Largest element of DIIS residual   :  0.74446811E-07.
 Perturbed amplitude equations converged in    14 iterations.
  Dominant contributions to perturbed wavefunction:
    7    7  142   37   0.2081042854 ABAB
    7    7   37  142   0.2081042854 ABAB
    7    7  142   27   0.2049857823 ABAB
    7    7   27  142   0.2049857823 ABAB
    7    7  142   55   0.1600929934 ABAB
    7    7   55  142   0.1600929934 ABAB
    7    7  141   37   0.1576733623 ABAB
    7    7   37  141   0.1576733623 ABAB
    7    7  141   27   0.1542998347 ABAB
    7    7   27  141   0.1542998347 ABAB
    7    7  141   55   0.1457991703 ABAB
    7    7   55  141   0.1457991703 ABAB
    7    7  142   63   0.1423508167 ABAB
    7    7   63  142   0.1423508167 ABAB
    7    6   37   91   0.1405681403 ABAB
    6    7   91   37   0.1405681403 ABAB
    7    6   27   91   0.1379850819 ABAB
    6    7   91   27   0.1379850819 ABAB
    7    7  143   27   0.1286524460 ABAB
    7    7   27  143   0.1286524460 ABAB
  norm of converged amps    2.56637386415985     
 Starting iterative solution of the perturbed Lambda equations.
 The DIIS procedure is used to accelerate convergence.
 Convergence criterion is 10**(-7).
 Maximum number of iterations is 100.
 Convergence information after     1 iterations: 
 Largest element of residual vector : -0.67053609E-01.
 Largest element of DIIS residual   : -0.67053609E-01.
 Convergence information after     2 iterations: 
 Largest element of residual vector :  0.69294149E-02.
 Largest element of DIIS residual   :  0.54070074E-02.
 Convergence information after     3 iterations: 
 Largest element of residual vector : -0.34370306E-02.
 Largest element of DIIS residual   : -0.29424454E-02.
 Convergence information after     4 iterations: 
 Largest element of residual vector : -0.20978385E-02.
 Largest element of DIIS residual   : -0.16319361E-02.
 Convergence information after     5 iterations: 
 Largest element of residual vector : -0.11764273E-02.
 Largest element of DIIS residual   : -0.52776605E-03.
 Convergence information after     6 iterations: 
 Largest element of residual vector : -0.37116376E-03.
 Largest element of DIIS residual   :  0.96960188E-04.
 Convergence information after     7 iterations: 
 Largest element of residual vector : -0.66381083E-04.
 Largest element of DIIS residual   : -0.39367769E-04.
 Convergence information after     8 iterations: 
 Largest element of residual vector : -0.15415915E-04.
 Largest element of DIIS residual   :  0.13274396E-04.
 Convergence information after     9 iterations: 
 Largest element of residual vector :  0.57764428E-05.
 Largest element of DIIS residual   :  0.36895625E-05.
 Convergence information after    10 iterations: 
 Largest element of residual vector :  0.27630356E-05.
 Largest element of DIIS residual   :  0.17825479E-05.
 Convergence information after    11 iterations: 
 Largest element of residual vector :  0.96573280E-06.
 Largest element of DIIS residual   :  0.49973154E-06.
 Convergence information after    12 iterations: 
 Largest element of residual vector :  0.42303288E-06.
 Largest element of DIIS residual   :  0.28796317E-06.
 Convergence information after    13 iterations: 
 Largest element of residual vector :  0.20805200E-06.
 Largest element of DIIS residual   :  0.17688377E-06.
 Convergence information after    14 iterations: 
 Largest element of residual vector :  0.12849647E-06.
 Largest element of DIIS residual   :  0.76202513E-07.
 Perturbed Lambda equations converged in    14 iterations.
  Dominant contributions to perturbed wavefunction:
    7    7  142   37   0.1992050753 ABAB
    7    7   37  142   0.1992050753 ABAB
    7    7  142   27   0.1954575429 ABAB
    7    7   27  142   0.1954575429 ABAB
    7    7  142   55   0.1512780219 ABAB
    7    7   55  142   0.1512780219 ABAB
    7    7  141   37   0.1496516212 ABAB
    7    7   37  141   0.1496516212 ABAB
    7    7  141   27   0.1457671447 ABAB
    7    7   27  141   0.1457671447 ABAB
    7    7  141   55   0.1370865791 ABAB
    7    7   55  141   0.1370865791 ABAB
    7    7  142   63   0.1359074303 ABAB
    7    7   63  142   0.1359074303 ABAB
    7    6   37   91   0.1330426576 ABAB
    6    7   91   37   0.1330426576 ABAB
    7    6   27   91   0.1299129404 ABAB
    6    7   91   27   0.1299129404 ABAB
    7    7  143   27   0.1233229612 ABAB
    7    7   27  143   0.1233229612 ABAB
        The DBOC first-order density matrix is being calculated 
             (Symmetry block 3, perturbation   2)
 term   7.76675278084340     
 final tnorm  0.892590426396867     
  norm contr. I: |<0|L dT/dx|0>|^2   0.000000000000000E+000
  norm contr. II: <0|[nabla(1+L)e-T][nabla e^T]|0>   7.76675278084340     
  total norm contribution   7.76675278084340     
 oo  1.267938787966295E-002
 vv  -58.3272791139077     
 vo  3.329702149171997E-002
  Correlated perturbed 1-el contribution to DBOC  -58.2813027045363       cm**-1
  SUM_I |dc_I/dx|^2 contribution to DBOC   29.2395688124504       cm**-1
 
 
  The total diagonal Born-Oppenheimer correction (DBOC) is:      0.0040142361 a.u.
  The total diagonal Born-Oppenheimer correction (DBOC) is:        881.022995 cm-1
 
 Total CC energy including DBOC  -113.278613382935     
 First-order density matrix is being calculated  (Symmetry block 3, perturbation   2)
 Calculation of the contributions of <pq||rs> to dI(i,j)/dx required   1.9 seconds.
 Calculation of the contributions of <pq||rs> to dI(a,b)/dx required  16.6 seconds.
 Calculation of the contributions of <pq||rs> to dI(i,a)/dx required   9.8 seconds.
 First-order Z-vector equations are solved for 1 perturbation.
 Convergence reached after  18 iterations.
        U*G(pq,rs) contribution is being calculated
             (Symmetry block 3, perturbation   2)

 CCSD contribution to force constants 

        0.0000000000        0.0000000000        0.0000000000
        0.0000000000        0.0000000000        0.0000000000
        0.0000000000        0.0000000000        0.0000000000
        0.0000000000        0.0000000000        0.0000000000
        0.0000000000        0.0000000000        0.0000000000
        0.0000000000        0.0000000000        0.0000000000
        0.0000000000        0.0000000000        0.0000000000
        0.0000000000        0.0000000000        0.0000000000
        0.0000000000        0.0000000000        0.0000000000
        0.0000000000        0.0000000000        0.0000000000
        0.0000000000        0.0000000000        0.0000000000
        0.0000000000       -4.2403804427        4.2403804427

 CCSD contribution to dipole derivatives 

        0.0000000000        0.0000000000        0.0000000000
        0.0000000000        0.0000000000        0.0000000000
        0.0000000000        0.0000000000        0.0000000000
        0.0000000000        0.0000000000       -0.0425797040
        0.0000000000        0.0000000000        0.0000000000
        0.0000000000        0.0000000000        0.0000000000
 @CHECKOUT-I, Total execution time (CPU/WALL):      997.96/     278.50 seconds.
--executable xsdcc finished with status     0 in      278.53 seconds (walltime).
 --invoking executable--
/nfs/workspaces/public/cfour_mpi/bin/xanti
 @GETMEM-I,  Allocated    3814 MB of main memory.
 CCSD MO derivative gammas will be sorted to Mulliken order.
 @CHECKOUT-I, Total execution time (CPU/WALL):       10.12/      12.76 seconds.
--executable xanti finished with status     0 in       12.78 seconds (walltime).
 --invoking executable--
/nfs/workspaces/public/cfour_mpi/bin/xbcktrn
 @GETMEM-I,  Allocated    3814 MB of main memory.
 CCSD MO derivative gammas will be transformed to the AO basis.
 @CHECKOUT-I, Total execution time (CPU/WALL):       23.49/       4.23 seconds.
--executable xbcktrn finished with status     0 in        4.26 seconds (walltime).
 --invoking executable--
/nfs/workspaces/public/cfour_mpi/bin/xvdint
 @GETMEM-I,  Allocated    3814 MB of main memory.
 One- and two-electron integral derivatives are calculated
 for RHF-CC/MBPT hessians and dipole derivatives.
 Spherical gaussians are used.
  magnet F F
                    8722  records have been written to the Sort file.
  Total length of Sort file :             178609116  words.
 Evaluation of 2el integral derivatives

                      Two-electron integral gradient
                      ------------------------------

                         C #1 z     0.0000000000
                         O #2 z     0.0000000000


 C #1       0.0000000000           -0.8366672733            0.0000000000
 O #2       0.0000000000            0.8366672733            0.0000000000


 Evaluation of 2e integral derivatives required  320.84 seconds.
  contribution to Hessian
        0.0000000000        0.0000000000        0.0000000000
        0.0000000000       -0.8366672733        0.8366672733
 @CHECKOUT-I, Total execution time (CPU/WALL):      320.83/      66.81 seconds.
--executable xvdint finished with status     0 in       66.84 seconds (walltime).
 --invoking executable--
/nfs/workspaces/public/cfour_mpi/bin/xanti
 @GETMEM-I,  Allocated    3814 MB of main memory.
 CCSD MO gammas will be sorted to Mulliken order.
 @CHECKOUT-I, Total execution time (CPU/WALL):       10.57/       9.19 seconds.
--executable xanti finished with status     0 in        9.21 seconds (walltime).
 --invoking executable--
/nfs/workspaces/public/cfour_mpi/bin/xbcktrn
 @GETMEM-I,  Allocated    3814 MB of main memory.
 CCSD MO gammas will be transformed to the AO basis.
 @CHECKOUT-I, Total execution time (CPU/WALL):       25.07/       4.03 seconds.
--executable xbcktrn finished with status     0 in        4.04 seconds (walltime).
 --invoking executable--
/nfs/workspaces/public/cfour_mpi/bin/xvdint
 @GETMEM-I,  Allocated    3814 MB of main memory.
 One- and two-electron integral derivatives are calculated
 for RHF-CC/MBPT hessians and dipole derivatives.
 Spherical gaussians are used.
  magnet F F

                     Kinetic energy integral gradient
                     --------------------------------

                         C #1 z    -1.6365677561
                         O #2 z     1.6365677561


 C #1       0.0000000000            0.0000000000           -1.6365677561
 O #2       0.0000000000            0.0000000000            1.6365677561



                   Nuclear attraction integral gradient
                   ------------------------------------

                         C #1 z    24.8200187171
                         O #2 z   -24.8200187171


 C #1       0.0000000000            0.0000000000           24.8200187171
 O #2       0.0000000000            0.0000000000          -24.8200187171



                      Reorthonormalization gradient
                      -----------------------------

                         C #1 z     0.0000000000
                         O #2 z     0.0000000000


 C #1       0.0000000000            0.0000000000            0.0000000000
 O #2       0.0000000000            0.0000000000            0.0000000000



                     Kinetic energy integral Hessian
                     -------------------------------


           Symmetry 1

           C #1 z      O #2 z

 C #1 z    1.052772
 O #2 z   -1.052772    1.052772


           Symmetry 2

           C #1 x      O #2 x

 C #1 x   -2.335563
 O #2 x    2.335563   -2.335563


           Symmetry 3

           C #1 y      O #2 y

 C #1 y   -2.335563
 O #2 y    2.335563   -2.335563




           C #1 x      C #1 y      C #1 z      O #2 x      O #2 y      O #2 z

 C #1 x   -2.335563
 C #1 y    0.000000   -2.335563
 C #1 z    0.000000    0.000000    1.052772

 O #2 x    2.335563    0.000000    0.000000   -2.335563
 O #2 y    0.000000    2.335563    0.000000    0.000000   -2.335563
 O #2 z    0.000000    0.000000   -1.052772    0.000000    0.000000    1.052772




                   Nuclear attraction integral Hessian
                   -----------------------------------


           Symmetry 1

           C #1 z      O #2 z

 C #1 z  -13.413929
 O #2 z   13.413929  -13.413929


           Symmetry 2

           C #1 x      O #2 x

 C #1 x   23.611744
 O #2 x  -23.611744   23.611744


           Symmetry 3

           C #1 y      O #2 y

 C #1 y   23.611744
 O #2 y  -23.611744   23.611744




           C #1 x      C #1 y      C #1 z      O #2 x      O #2 y      O #2 z

 C #1 x   23.611744
 C #1 y    0.000000   23.611744
 C #1 z    0.000000    0.000000  -13.413929

 O #2 x  -23.611744    0.000000    0.000000   23.611744
 O #2 y    0.000000  -23.611744    0.000000    0.000000   23.611744
 O #2 z    0.000000    0.000000   13.413929    0.000000    0.000000  -13.413929




                Highest order reorthonormalization Hessian
                ------------------------------------------


           Symmetry 1

           C #1 z      O #2 z

 C #1 z    0.000000
 O #2 z    0.000000    0.000000


           Symmetry 2

           C #1 x      O #2 x

 C #1 x    0.000000
 O #2 x    0.000000    0.000000


           Symmetry 3

           C #1 y      O #2 y

 C #1 y    0.000000
 O #2 y    0.000000    0.000000




           C #1 x      C #1 y      C #1 z      O #2 x      O #2 y      O #2 z




                Electronic contributions to dipole moment
                -----------------------------------------

                               au             Debye

                    z      0.46346795      1.17801822

  Conversion factor used: 1 a.u. =   2.54174691 Debye 



   Electronic contributions to static part of dipole moment derivatives
   --------------------------------------------------------------------


                     Total dipole moment derivatives
                     -------------------------------


           Symmetry 1
                              Ez

               C #1 z    -5.77266938
               O #2 z    -8.22733062

           Symmetry 2
                              Ex

               C #1 x    -5.82568399
               O #2 x    -8.17431601

           Symmetry 3
                              Ey

               C #1 y    -5.82568399
               O #2 y    -8.17431601



                       Ex          Ey          Ez

      C #1    x   -5.825684    0.000000    0.000000
      C #1    y    0.000000   -5.825684    0.000000
      C #1    z    0.000000    0.000000   -5.772669

      O #2    x   -8.174316    0.000000    0.000000
      O #2    y    0.000000   -8.174316    0.000000
      O #2    z    0.000000    0.000000   -8.227331

 Evaluation of 1e integral derivatives required    1.76 seconds.
                    8815  records have been written to the Sort file.
  Total length of Sort file :             180513570  words.
 Evaluation of 2el integral derivatives

                      Two-electron integral gradient
                      ------------------------------

                         C #1 z   -11.4798996982
                         O #2 z    11.4798996982


 C #1       0.0000000000            0.0000000000          -11.4798996982
 O #2       0.0000000000            0.0000000000           11.4798996982


 Evaluation of 2e integral derivatives required  699.50 seconds.

                            Molecular gradient
                            ------------------

                         C #1 z     0.3110729771
                         O #2 z    -0.3110729771


 C #1       0.0000000000            0.0000000000            0.3110729771
 O #2       0.0000000000            0.0000000000           -0.3110729771


  Molecular gradient norm 0.440E+00

                            Molecular hessian
                            -----------------


           Symmetry 1

           C #1 z      O #2 z

 C #1 z   73.760329
 O #2 z  -73.760329   73.760329


           Symmetry 2

           C #1 x      O #2 x

 C #1 x    5.030415
 O #2 x   -5.030415    5.030415


           Symmetry 3

           C #1 y      O #2 y

 C #1 y    5.030415
 O #2 y   -5.030415    5.030415




           C #1 x      C #1 y      C #1 z      O #2 x      O #2 y      O #2 z

 C #1 x    5.030415
 C #1 y    0.000000    5.030415
 C #1 z    0.000000    0.000000   73.760329

 O #2 x   -5.030415    0.000000    0.000000    5.030415
 O #2 y    0.000000   -5.030415    0.000000    0.000000    5.030415
 O #2 z    0.000000    0.000000  -73.760329    0.000000    0.000000   73.760329




                           Total dipole moment
                           -------------------

                               au             Debye

                    z     -0.10686926     -0.27163462

  Conversion factor used: 1 a.u. =   2.54174691 Debye 



                     Total dipole moment derivatives
                     -------------------------------


           Symmetry 1
                              Ez

               C #1 z     0.70453725
               O #2 z    -0.70453725

           Symmetry 2
                              Ex

               C #1 x    -0.05303796
               O #2 x     0.05303796

           Symmetry 3
                              Ey

               C #1 y    -0.05303796
               O #2 y     0.05303796



                       Ex          Ey          Ez

      C #1    x   -0.053038    0.000000    0.000000
      C #1    y    0.000000   -0.053038    0.000000
      C #1    z    0.000000    0.000000    0.704537

      O #2    x    0.053038    0.000000    0.000000
      O #2    y    0.000000    0.053038    0.000000
      O #2    z    0.000000    0.000000   -0.704537

 @CHECKOUT-I, Total execution time (CPU/WALL):      701.26/     119.57 seconds.
--executable xvdint finished with status     0 in      119.59 seconds (walltime).
 --invoking executable--
/nfs/workspaces/public/cfour_mpi/bin/xjoda
  @GTFLGS-I, Hessian will be transformed to curvilinear coordinates.
  @GTFLGS-I, Hessian will be transformed to curvilinear coordinates.
  igrd and ihes are                      0                     1
  gradient from JOBARC 
   0.000000000000000   0.000000000000000   0.311072977147044
   0.000000000000000   0.000000000000000  -0.311072977147044
 
  @PROJFCM-I, Projecting force constant matrix onto totally symmetric subspace.
  Largest difference between matrix elements of symmetrized
  and unsymmetrized FCM :     0.4055422664E-11.
  read isotopes from ZMAT file 
 
  Summary of diagonal Born-Oppenheimer correction at the correlated level
  The total diagonal Born-Oppenheimer correction (DBOC) is:      0.0040142361 a.u.
  The total diagonal Born-Oppenheimer correction (DBOC) is:        881.022995 cm-1
  The total diagonal Born-Oppenheimer correction (DBOC) is:            10.539 kJ/mole
  hellooooooo 
  readis is  F
 
 @CHECKOUT-I, Total execution time (CPU/WALL):        0.01/       0.04 seconds.
--executable xjoda finished with status     0 in        0.06 seconds (walltime).
  The final electronic energy is      -113.278613382935021 a.u. 
  This computation required                         2615.19 seconds (walltime).
