 --invoking executable--
/nfs/workspaces/public/cfour_mpi/bin/xjoda


   *************************************************************************
         <<<     CCCCCC     CCCCCC   |||     CCCCCC     CCCCCC   >>>
       <<<      CCC        CCC       |||    CCC        CCC         >>>
      <<<      CCC        CCC        |||   CCC        CCC            >>>
    <<<        CCC        CCC        |||   CCC        CCC              >>>
      <<<      CCC        CCC        |||   CCC        CCC            >>>
       <<<      CCC        CCC       |||    CCC        CCC         >>>
         <<<     CCCCCC     CCCCCC   |||     CCCCCC     CCCCCC   >>>
   *************************************************************************

     ****************************************************************
     * CFOUR Coupled-Cluster techniques for Computational Chemistry *
     ****************************************************************
 

   Department of Chemistry                Institut fuer Physikalische Chemie
   University of Florida                  Universitaet Mainz
   Gainesville, FL 32611, USA             D-55099 Mainz, Germany

   Department of Chemistry                Fakultaet fuer Chemie und Biowiss.
   Johns Hopkins University               Karlsruher Institut fuer Technologie
   Baltimore, MD 21218, USA               D-76131 Karlsruhe, Germany

   Department of Chemistry                Department of Physical Chemistry
   Southern Methodist University          Eotvos Lorand University
   Dallas, TX 75275, USA                  H-1053 Budapest, Hungary

 
                       Version 2.1
 
                     vincent.theory.phys.ucl.ac.uk                     
                     Thu 27 Feb 06:26:15 GMT 2025                      
                     integer*8 version is running
 
********************************************************************************
*                          Input from ZMAT file                                *
********************************************************************************
Carbon Monoxide DBOC calculation                                                
C                                                                               
O 1 r                                                                           
                                                                                
r=1.210344827586207                                                             
                                                                                
                                                                                
*CFOUR(CALC=CCSD,BASIS=AUG-PCVQZ,SCF_CONV=10                                    
CC_CONV=14,DBOC=ON,MEMORY=500000000                                             
ZFIELD=-200)                                                                    
                                                                                
%isotopes                                                                       
13                                                                              
16                                                                              
********************************************************************************
  @GTFLGS-I, Hessian will be transformed to curvilinear coordinates.
    -------------------------------------------------------------------
                    CFOUR Control Parameters 
    -------------------------------------------------------------------
        External           Internal           Value            Units
          Name               Name
    -------------------------------------------------------------------
       ABCDTYPE             IABCDT         STANDARD    [  0]    ***   
       ANHARMONIC           IANHAR         OFF         [  0]    ***   
       ANH_ALGORIT          IANALG         STANDARD    [  0]    ***   
       ANH_DERIVAT          IANDER         SECOND      [  1]    ***   
       ANH_MODE             ANHMOD         VIBRATION   [  0]    ***   
       ANH_STEPSIZ          ICUBST             50000          x 10-6  
       ANH_SYMMETR          IANHSM         ABELIAN     [  0]    ***   
       AO_LADDERS           IAOLAD         SINGLEPASS  [  1]    ***   
       AV_SCF               IAVSCF         OFF         [  0]    ***   
       BASIS                IBASIS         AUG-PCVQZ   [ 52]    ***   
       BOTHVECTORS          BOTHVC         OFF         [  0]    ***   
       BOX_POTENT           IPIAB          OFF         [  0]    ***   
       BREIT                IBREIT         OFF         [  0]    ***   
       BRUCK_CONV           IBRTOL          10D-  4             ***   
       BRUECKNER            IBRKNR         OFF         [  0]    ***   
       BUFFERSIZE           IBUFFS              4096            ***   
       CACHE_RECS           ICHREC             10               ***   
       CALCLEVEL            ICLLVL         CCSD        [ 10]    ***   
       CCORBOPT             ICCORB         OFF         [  0]  x 0.01  
       CC_CONV              ICCCNV          10D- 14             ***   
       CC_EXPORDER          ICCEOR              5               ***   
       CC_EXTRAPOL          ICCEXT         DIIS        [  1]    ***   
       CC_GUESS             ICCGES         MP2         [  0]    ***   
       CC_MAXCYC            ICCCYC            100              cycles 
       CC_PROGRAM           ICCPRO         VCC         [  0]    ***   
       CHARGE               ICHRGE              0               ***   
       CHOLESKY             ICHOLE         OFF         [  0]    ***   
       CIS_CONV             ICISTL              5               ***   
       COMM_SIZE            IPSIZE            ***               ***   
       CONSTANT             ICONST         OLD         [  1]    ***   
       CONTINUUM            ICONTU         NONE        [  0]    ***   
       CONTRACTION          ICNTYP         GENERAL     [  1]    ***   
       COORDINATES          ICOORD         INTERNAL    [  0]    ***   
       CPHF_CONVER          ICPHFT          10D- 16             ***   
       CPHF_MAXCYC          ICPHFC             64              cycles 
       CUBIC                ICUBIC         OFF         [  0]    ***   
       CURVILINEAR          ICURVY         ON          [  1]    ***   
       DBOC                 IDBOC          ON          [  1]    ***   
       DCT                  IDCT           OFF         [  0]    ***   
       DERIV_LEV            IDRLVL         SECOND      [  2]    ***   
       DEVMEM_SIZE          IDVMEM          50000000           MByte  
       DIAG_MRCC            IEOMST          10D-  0             ***   
       DIFF_TYPE            IDIFTY         RELAXED     [  0]    ***   
       DIRECT               IDIRCT         OFF         [  0]    ***   
       DROPMO               IDRPMO      NONE         
       ECP                  IECP           OFF         [  0]    ***   
       EIGENVECTOR          IVEC                1               ***   
       EL_ANHARM            IELANH         OFF         [  0]    ***   
       EOMFOLLOW            IEOMSR         ENERGY      [  0]    ***   
       EOMIP                IEOMIP         OFF         [  0]    ***   
       EOMLEVEL             HBARFM         SAME        [  0]    ***   
       EOM_MRCC             IMRCCE         NEW         [  1]    ***   
       EOM_NONIT            EOMNON         OFF         [  0]    ***   
       EOM_NSING            IEOMSI          10D-  0             ***   
       EOM_NSTATES          IMRCCD         DAVIDSON    [  0]    ***   
       EOM_NTRIP            IEOMTR          10D-  0             ***   
       EOM_ORDER            IEXORD         ENERGY      [  0]    ***   
       EOM_PROPSTA          IEOMST              0               ***   
       ESTATE_CONV          IEXTOL          10D-  5             ***   
       ESTATE_DIAG          IEXDIG         ITERATIVE   [  0]    ***   
       ESTATE_LOCK          IESLOC         ON          [  1]    ***   
       ESTATE_MAXC          IEXMXC             40               ***   
       ESTATE_PROP          IEXPRP         OFF         [  0]    ***   
       EVAL_HESS            IRECAL              0            # of cyc.
       EXCITATION           IEXCIT              0               ***   
       EXCITE               IEXCIT         NONE        [  0]    ***   
       EXTERN_POT           IEXPOT         OFF         [  0]    ***   
       FCGRADNEW            IFCGNW         OFF         [  0]    ***   
       FC_FIELD             IFINFC              0             x 10-6  
       FD_CALTYPE           IFDCAL         GRADONLY    [  0]    ***   
       FD_PROJECT           IFDPRJ         OFF         [  1]    ***   
       FD_STEPSIZE          IDISFD              0            10-4 bohr
       FD_USEGROUP          IFDGRP         FULL        [  0]    ***   
       FILE_RECSIZ          IFLREC              4096           words  
       FINITE_PERT          IFIPER              0             x 10-6  
       FIXGEOM              IFIXGM         OFF         [  0]    ***   
       FOCK                 IFOCK          AO          [  1]    ***   
       FREQ_ALGORI          IVIALG         STANDARD    [  0]    ***   
       FROZEN_CORE          IFROCO         OFF         [  0]    ***   
       GAMMA_ABCD           IGABCD         STORE       [  0]    ***   
       GAMMA_ABCI           IGABCI         STORE       [  0]    ***   
       GENBAS_1             IGNBS1              0               ***   
       GENBAS_2             IGNBS2              0               ***   
       GENBAS_3             IGNBS3              0               ***   
       GENBAS_4             IGNBS4              0               ***   
       GEO_CONV             ICONTL              5              H/bohr 
       GEO_MAXCYC           IOPTCY             50               ***   
       GEO_MAXSTEP          IMXSTP            300            millibohr
       GEO_METHOD           INR            SINGLE_POINT[  5]    ***   
       GIAO                 IGIAO          OFF         [  1]    ***   
       GIMIC                IGIMIC         OFF         [  0]    ***   
       GRID                 IGRID          OFF         [  0]    ***   
       GRID_ALGO            IGALGO         SERIAL      [  0]    ***   
       GUESS                IGUESS         MOREAD      [  0]    ***   
       HBAR                 IHBAR          OFF         [  0]    ***   
       HESS_TYPE            IHESTP         SCF         [  0]    ***   
       HF2_FILE             IHF2Fl         USE         [  1]    ***   
       HFSTABILITY          ISTABL         OFF         [  0]    ***   
       INCORE               INCORE         OFF         [  0]    ***   
       INPUT_MRCC           IMRCC          ON          [  1]    ***   
       INTEGRALS            INTTYP         VMOL        [  1]    ***   
       JODA_PRINT           IJPRNT              0               ***   
       KEYWORD_OUT          IDMPKW         NO          [  0]    ***   
       LINDEP_TOL           ILINDP              8               ***   
       LINEQ_CONV           IZTACN          10D-  7           cycles  
       LINEQ_EXPOR          ILMAXD              5               ***   
       LINEQ_MAXCY          ILMAXC            100               ***   
       LINEQ_TYPE           ILTYPE         DIIS        [  1]    ***   
       LOCK_ORBOCC          ILOCOC         OFF         [  0]    ***   
       MEMORY_SIZE          IMEMSZ         500000000           words  
       MEM_UNIT             IMEMU          INTEGERWORDS[  0]    ***   
       MRCC                 IMRCCC         OFF         [  0]    ***   
       MULTIPLICTY          IMULTP              1               ***   
       NACOUPLING           IVCOUP         OFF         [  0]    ***   
       NEGEVAL              IDIE           ABORT       [  0]    ***   
       NEWNORM              INEWNO         OFF         [  0]    ***   
       NON-HF               INONHF         OFF         [  0]    ***   
       NTOP_TAMP            ITOPT2             15               ***   
       NUC_MODEL            INUCMO         POINT       [  0]    ***   
       OCCUPATION           IOCCU   ESTIMATED BY SCF 
       OPEN-SHELL           IOPEN          SPIN-ORBITAL[  0]    ***   
       OPTVIB               IOPTVB         OFF         [  0]    ***   
       ORBITALS             IORBTP         STANDARD    [  0]    ***   
       PARALLEL             IPARAL         ON          [  1]    ***   
       PARA_INT             IPINTS         ON          [  1]    ***   
       PARA_PRINT           IPPRIN              0               ***   
       PERT_ORB             IPTORB         STANDARD    [  0]    ***   
       POINTS               IGRDFD              0               ***   
       PRINT                IPRNT               0               ***   
       PROPS                IPROPS         OFF         [  0]    ***   
       PROP_INTEGR          IINTYP         INTERNAL    [  0]    ***   
       PSI                  IPSI           OFF         [  0]    ***   
       QC_ALG               IQCALG         FLM         [  0]    ***   
       QC_LINALG            IQCLIN         TRIDIAG     [  2]    ***   
       QC_MAXCYC            IQCMAX          10D-100           cycles  
       QC_MAXSCFCY          IQCMSC          10D- 15           cycles  
       QC_RTRUST            IQCRTR          10D-  0           x 10-3  
       QC_SKIPSCF           IQCSKI         OFF         [  0]    ***   
       QC_START             IQCSTA          10D-  1             ***   
       QRHFGUESS            IQGUES         OFF         [  0]    ***   
       QUARTIC              IQUART         OFF         [  0]    ***   
       RAMAN_INT            IRAMIN         OFF         [  0]    ***   
       RAMAN_ORB            IRAMRE         UNRELAXED   [  0]    ***   
       RDO                  IRDOFM         ON          [  1]    ***   
       REDUCE_REPR          REDREP         Ir          [  0]    ***   
       REFERENCE            IREFNC         RHF         [  0]    ***   
       RELATIVIST           IRELAT         OFF         [  0]    ***   
       RELAX_DENS           IRDENS         ON          [  1]    ***   
       RESET_FLAGS          IRESET         OFF         [  0]    ***   
       RESTART_CC           ICCRES         OFF         [  0]    ***   
       ROT_EVEC             ROTVEC              0               ***   
       SAVE_INTS            ISVINT         OFF         [  0]    ***   
       SCALE_ON             ISTCRT              0               ***   
       SCF_CONV             ISCFCV          10D- 10             ***   
       SCF_DAMPING          IDAMP               0             x 10-3  
       SCF_EXPORDE          IRPPOR              6               ***   
       SCF_EXPSTAR          IRPPLS              8               ***   
       SCF_EXTRAPO          IRPP           ON          [  1]    ***   
       SCF_MAXCYC           ISCFCY            150              cycles 
       SCF_NOSTOP           ISCFST         OFF         [  0]    ***   
       SCF_PRINT            ISCFPR              0               ***   
       SCF_PROG             ISCFPR         SCF         [  0]    ***   
       SD_FIELD             IFINSD              0             x 10-6  
       SOPERT               IPERSO         OFF         [  0]    ***   
       SPHERICAL            IDFGHI         ON          [  1]    ***   
       SPINORBIT            ISOCAL         OFF         [  0]    ***   
       SPINROTATIO          ISRCON         OFF         [  0]    ***   
       SPIN_FLIP            ISPFLP         OFF         [  0]    ***   
       SPIN_ORBIT           ISPORB         OFF         [  0]    ***   
       SPIN_SCAL            ISCSMP         OFF         [  0]    ***   
       STEEPSCALE           ISTPSC              1000          x 10-3  
       SUBGROUP             ISUBGP         DEFAULT     [  0]    ***   
       SUBGRPAXIS           ISBXYZ         X           [  0]    ***   
       SYMMETRY             ISYM           ON          [  0]    ***   
       SYM_CHECK            ISYMCK         OVERRIDE    [  1]    ***   
       T3_EXTRAPOL          IT3EXT         OFF         [  0]    ***   
       T4_EXTRAPOL          IT4EXP         OFF         [  0]    ***   
       TAMP_SUM             IEVERY              5               ***   
       TESTSUITE            ITESTS         OFF         [  0]    ***   
       THERMOCH             ITHERM         OFF         [  0]    ***   
       TOL_CHOLESK          ITOLCH          10D-  4             ***   
       TRANGRAD             IRESRM         OFF         [  0]    ***   
       TRANS_INV            ITRAIN         IGNORE      [  1]    ***   
       TREAT_PERT           ITREAT         SIMULTANEOUS[  0]    ***   
       TRIP_ALGORI          ITRALG         NORMAL      [  0]    ***   
       UIJ_THRESHO          IUIJTH              1               ***   
       UNITS                IUNITS         ANGSTROM    [  0]    ***   
       UNOS                 IUNOS          OFF         [  0]    ***   
       UPDATE_HESS          IHUPDT         ON          [  1]    ***   
       VIBPHASE             ISETPH         STANDARD    [  0]    ***   
       VIBRATION            IVIB           ANALYTIC    [  1]    ***   
       VIB_ALGORIT          IGEALG         STANDARD    [  0]    ***   
       VNATORB              IVNORB         OFF         [  0]    ***   
       VTRAN                IVTRAN         FULL/PARTIAL[  0]    ***   
       XFIELD               IXEFLD              0             x 10-6  
       XFORM_TOL            IXFTOL          10D- 11             ***   
       YFIELD               IYEFLD              0             x 10-6  
       ZFIELD               IZEFLD            ***             x 10-6  
       ZSCALE_EXP           IZEXPS         OFF         [  0]    ***   
    -------------------------------------------------------------------
   2 entries found in Z-matrix 
   Job Title : Carbon Monoxide DBOC calculation                                                
   There are  1 unique internal coordinates.
   Of these,  0 will be optimized.
   User supplied Z-matrix: 
--------------------------------------------------------------------------------
       SYMBOL    BOND      LENGTH    ANGLE     ANGLE     DIHED     ANGLE
                  TO      (ANGST)    WRT      (DEG)      WRT      (DEG)
--------------------------------------------------------------------------------
        C    
        O          1         r    
                  *Initial values for internal coordinates* 
                      Name             Value
                        r               1.2103448276
--------------------------------------------------------------------------------
  read isotopes from ZMAT file 
   Rotational constants (in cm-1): 
          1.6044014995             1.6044014995
   Rotational constants (in MHz): 
      48098.7536552511         48098.7536552511
********************************************************************************
   The full molecular point group is CXv .
   The largest Abelian subgroup of the full molecular point group is C2v .
   The computational point group is C2v .
********************************************************************************
--------------------------------------------------------------------------------
   Analysis of internal coordinates specified by Z-matrix 
--------------------------------------------------------------------------------
   *The nuclear repulsion energy is   20.986168752136749 a.u.
   *There is   1 degree of freedom within the tot. symm. molecular subspace.
   *Z-matrix requests optimization of   0 coordinates.
   *The optimization is constrained.
   *The following   1 parameters can have non-zero 
    derivatives within the totally symmetric subspace:
             r    [ 1]
   *The following   0 parameters are to be optimized:

   *The following coordinates must be varied in an  unconstrained optimization.
             r    [ 1]
--------------------------------------------------------------------------------


 ----------------------------------------------------------------
         Coordinates used in calculation (QCOMP) 
 ----------------------------------------------------------------
 Z-matrix   Atomic            Coordinates (in bohr)
  Symbol    Number           X              Y              Z
 ----------------------------------------------------------------
     C         6        -0.00000000     0.00000000     1.26158908
     O         8         0.00000000     0.00000000    -1.02563164
 ----------------------------------------------------------------
 
   Interatomic distance matrix (Angstroms) 
 
                 C             O    
                [ 1]        [ 2]
  C    [ 1]     0.00000
  O    [ 2]     1.21035     0.00000
 rotcon2
   Rotational constants (in cm-1): 
          1.6044014995             0.0000000000
   Rotational constants (in MHz): 
      48098.7536552511             0.0000000000
  ECPDATA file not present.   Using default ECPDATA. 
  @GTFLGS-I, Hessian will be transformed to curvilinear coordinates.
  There are  218 basis functions.
 @CHECKOUT-I, Total execution time (CPU/WALL):        0.12/       0.15 seconds.
--executable xjoda finished with status     0 in        0.17 seconds (walltime).
 --invoking executable--
/nfs/workspaces/public/cfour_mpi/bin/xvmol
 SERIAL VERSION OF MOLECULE STARTED
********************************************************************************
                    INPUT FROM MOL FILE
********************************************************************************
INTGRL        1    0    1    0    0    0    0    0    0                         
         *** CFOUR Program System (Release V0.1) ***                            
Carbon Monoxide DBOC calculation                                                
    2    2 X  Y       0.10E-08              0    0                              
   9999.00      3.00                                                            
          6.00000000    1    5    1    1    1    1    1                         
C #1  -0.000000000000000   0.000000000000000   1.261589082388488                
   16    9                                                                      
   33980.0000000000       9.100000000000000E-005 -1.900000000000000E-005        
  0.000000000000000E+000  0.000000000000000E+000  0.000000000000000E+000        
  0.000000000000000E+000  0.000000000000000E+000  0.000000000000000E+000        
  0.000000000000000E+000                                                        
   5089.00000000000       7.040000000000000E-004 -1.510000000000000E-004        
  0.000000000000000E+000  0.000000000000000E+000  0.000000000000000E+000        
  0.000000000000000E+000  0.000000000000000E+000  0.000000000000000E+000        
  0.000000000000000E+000                                                        
   1157.00000000000       3.693000000000000E-003 -7.850000000000000E-004        
  0.000000000000000E+000  0.000000000000000E+000  0.000000000000000E+000        
  0.000000000000000E+000  0.000000000000000E+000  0.000000000000000E+000        
  0.000000000000000E+000                                                        
   326.600000000000       1.536000000000000E-002 -3.324000000000000E-003        
  0.000000000000000E+000  0.000000000000000E+000  0.000000000000000E+000        
  0.000000000000000E+000  0.000000000000000E+000  0.000000000000000E+000        
  0.000000000000000E+000                                                        
   106.100000000000       5.292900000000000E-002 -1.151200000000000E-002        
  0.000000000000000E+000  0.000000000000000E+000  0.000000000000000E+000        
  0.000000000000000E+000  0.000000000000000E+000  0.000000000000000E+000        
  0.000000000000000E+000                                                        
   38.1100000000000       0.147043000000000      -3.416000000000000E-002        
  0.000000000000000E+000  0.000000000000000E+000  0.000000000000000E+000        
  0.000000000000000E+000  0.000000000000000E+000  0.000000000000000E+000        
  0.000000000000000E+000                                                        
   14.7500000000000       0.305631000000000      -7.717300000000001E-002        
  0.000000000000000E+000  0.000000000000000E+000  0.000000000000000E+000        
  0.000000000000000E+000  0.000000000000000E+000  0.000000000000000E+000        
  0.000000000000000E+000                                                        
   6.03500000000000       0.399345000000000      -0.141493000000000             
  0.000000000000000E+000  0.000000000000000E+000  0.000000000000000E+000        
  0.000000000000000E+000  0.000000000000000E+000  0.000000000000000E+000        
  0.000000000000000E+000                                                        
   2.53000000000000       0.217051000000000      -0.118019000000000             
  0.000000000000000E+000  0.000000000000000E+000  0.000000000000000E+000        
  0.000000000000000E+000  0.000000000000000E+000  0.000000000000000E+000        
  0.000000000000000E+000                                                        
  0.735500000000000       1.589400000000000E-002  0.273806000000000             
   1.00000000000000       0.000000000000000E+000  0.000000000000000E+000        
  0.000000000000000E+000  0.000000000000000E+000  0.000000000000000E+000        
  0.000000000000000E+000                                                        
  0.290500000000000      -3.084000000000000E-003  0.586510000000000             
  0.000000000000000E+000   1.00000000000000       0.000000000000000E+000        
  0.000000000000000E+000  0.000000000000000E+000  0.000000000000000E+000        
  0.000000000000000E+000                                                        
  0.111100000000000       9.779999999999999E-004  0.285430000000000             
  0.000000000000000E+000  0.000000000000000E+000   1.00000000000000             
  0.000000000000000E+000  0.000000000000000E+000  0.000000000000000E+000        
  0.000000000000000E+000                                                        
   7.21600000000000       0.000000000000000E+000  0.000000000000000E+000        
  0.000000000000000E+000  0.000000000000000E+000  0.000000000000000E+000        
   1.00000000000000       0.000000000000000E+000  0.000000000000000E+000        
  0.000000000000000E+000                                                        
   19.5700000000000       0.000000000000000E+000  0.000000000000000E+000        
  0.000000000000000E+000  0.000000000000000E+000  0.000000000000000E+000        
  0.000000000000000E+000   1.00000000000000       0.000000000000000E+000        
  0.000000000000000E+000                                                        
   53.0730000000000       0.000000000000000E+000  0.000000000000000E+000        
  0.000000000000000E+000  0.000000000000000E+000  0.000000000000000E+000        
  0.000000000000000E+000  0.000000000000000E+000   1.00000000000000             
  0.000000000000000E+000                                                        
  4.145000000000000E-002  0.000000000000000E+000  0.000000000000000E+000        
  0.000000000000000E+000  0.000000000000000E+000  0.000000000000000E+000        
  0.000000000000000E+000  0.000000000000000E+000  0.000000000000000E+000        
   1.00000000000000                                                             
   10    8                                                                      
   34.5100000000000       5.378000000000000E-003  0.000000000000000E+000        
  0.000000000000000E+000  0.000000000000000E+000  0.000000000000000E+000        
  0.000000000000000E+000  0.000000000000000E+000  0.000000000000000E+000        
   7.91500000000000       3.613200000000000E-002  0.000000000000000E+000        
  0.000000000000000E+000  0.000000000000000E+000  0.000000000000000E+000        
  0.000000000000000E+000  0.000000000000000E+000  0.000000000000000E+000        
   2.36800000000000       0.142493000000000       0.000000000000000E+000        
  0.000000000000000E+000  0.000000000000000E+000  0.000000000000000E+000        
  0.000000000000000E+000  0.000000000000000E+000  0.000000000000000E+000        
  0.813200000000000       0.342150000000000        1.00000000000000             
  0.000000000000000E+000  0.000000000000000E+000  0.000000000000000E+000        
  0.000000000000000E+000  0.000000000000000E+000  0.000000000000000E+000        
  0.289000000000000       0.463864000000000       0.000000000000000E+000        
   1.00000000000000       0.000000000000000E+000  0.000000000000000E+000        
  0.000000000000000E+000  0.000000000000000E+000  0.000000000000000E+000        
  0.100700000000000       0.250028000000000       0.000000000000000E+000        
  0.000000000000000E+000   1.00000000000000       0.000000000000000E+000        
  0.000000000000000E+000  0.000000000000000E+000  0.000000000000000E+000        
   8.18200000000000       0.000000000000000E+000  0.000000000000000E+000        
  0.000000000000000E+000  0.000000000000000E+000   1.00000000000000             
  0.000000000000000E+000  0.000000000000000E+000  0.000000000000000E+000        
   24.1860000000000       0.000000000000000E+000  0.000000000000000E+000        
  0.000000000000000E+000  0.000000000000000E+000  0.000000000000000E+000        
   1.00000000000000       0.000000000000000E+000  0.000000000000000E+000        
   71.4940000000000       0.000000000000000E+000  0.000000000000000E+000        
  0.000000000000000E+000  0.000000000000000E+000  0.000000000000000E+000        
  0.000000000000000E+000   1.00000000000000       0.000000000000000E+000        
  3.218000000000000E-002  0.000000000000000E+000  0.000000000000000E+000        
  0.000000000000000E+000  0.000000000000000E+000  0.000000000000000E+000        
  0.000000000000000E+000  0.000000000000000E+000   1.00000000000000             
    6    6                                                                      
   1.84800000000000        1.00000000000000       0.000000000000000E+000        
  0.000000000000000E+000  0.000000000000000E+000  0.000000000000000E+000        
  0.000000000000000E+000                                                        
  0.649000000000000       0.000000000000000E+000   1.00000000000000             
  0.000000000000000E+000  0.000000000000000E+000  0.000000000000000E+000        
  0.000000000000000E+000                                                        
  0.228000000000000       0.000000000000000E+000  0.000000000000000E+000        
   1.00000000000000       0.000000000000000E+000  0.000000000000000E+000        
  0.000000000000000E+000                                                        
   8.65600000000000       0.000000000000000E+000  0.000000000000000E+000        
  0.000000000000000E+000   1.00000000000000       0.000000000000000E+000        
  0.000000000000000E+000                                                        
   33.2130000000000       0.000000000000000E+000  0.000000000000000E+000        
  0.000000000000000E+000  0.000000000000000E+000   1.00000000000000             
  0.000000000000000E+000                                                        
  7.660000000000000E-002  0.000000000000000E+000  0.000000000000000E+000        
  0.000000000000000E+000  0.000000000000000E+000  0.000000000000000E+000        
   1.00000000000000                                                             
    4    4                                                                      
   1.41900000000000        1.00000000000000       0.000000000000000E+000        
  0.000000000000000E+000  0.000000000000000E+000                                
  0.485000000000000       0.000000000000000E+000   1.00000000000000             
  0.000000000000000E+000  0.000000000000000E+000                                
   24.6940000000000       0.000000000000000E+000  0.000000000000000E+000        
   1.00000000000000       0.000000000000000E+000                                
  0.187000000000000       0.000000000000000E+000  0.000000000000000E+000        
  0.000000000000000E+000   1.00000000000000                                     
    2    2                                                                      
   1.01100000000000        1.00000000000000       0.000000000000000E+000        
  0.424000000000000       0.000000000000000E+000   1.00000000000000             
          8.00000000    1    5    1    1    1    1    1                         
O #2   0.000000000000000   0.000000000000000  -1.025631637454089                
   16    9                                                                      
   61420.0000000000       9.000000000000001E-005 -2.000000000000000E-005        
  0.000000000000000E+000  0.000000000000000E+000  0.000000000000000E+000        
  0.000000000000000E+000  0.000000000000000E+000  0.000000000000000E+000        
  0.000000000000000E+000                                                        
   9199.00000000000       6.980000000000001E-004 -1.590000000000000E-004        
  0.000000000000000E+000  0.000000000000000E+000  0.000000000000000E+000        
  0.000000000000000E+000  0.000000000000000E+000  0.000000000000000E+000        
  0.000000000000000E+000                                                        
   2091.00000000000       3.664000000000000E-003 -8.290000000000000E-004        
  0.000000000000000E+000  0.000000000000000E+000  0.000000000000000E+000        
  0.000000000000000E+000  0.000000000000000E+000  0.000000000000000E+000        
  0.000000000000000E+000                                                        
   590.900000000000       1.521800000000000E-002 -3.508000000000000E-003        
  0.000000000000000E+000  0.000000000000000E+000  0.000000000000000E+000        
  0.000000000000000E+000  0.000000000000000E+000  0.000000000000000E+000        
  0.000000000000000E+000                                                        
   192.300000000000       5.242300000000000E-002 -1.215600000000000E-002        
  0.000000000000000E+000  0.000000000000000E+000  0.000000000000000E+000        
  0.000000000000000E+000  0.000000000000000E+000  0.000000000000000E+000        
  0.000000000000000E+000                                                        
   69.3200000000000       0.145921000000000      -3.626100000000000E-002        
  0.000000000000000E+000  0.000000000000000E+000  0.000000000000000E+000        
  0.000000000000000E+000  0.000000000000000E+000  0.000000000000000E+000        
  0.000000000000000E+000                                                        
   26.9700000000000       0.305258000000000      -8.299200000000000E-002        
  0.000000000000000E+000  0.000000000000000E+000  0.000000000000000E+000        
  0.000000000000000E+000  0.000000000000000E+000  0.000000000000000E+000        
  0.000000000000000E+000                                                        
   11.1000000000000       0.398508000000000      -0.152090000000000             
  0.000000000000000E+000  0.000000000000000E+000  0.000000000000000E+000        
  0.000000000000000E+000  0.000000000000000E+000  0.000000000000000E+000        
  0.000000000000000E+000                                                        
   4.68200000000000       0.216980000000000      -0.115331000000000             
  0.000000000000000E+000  0.000000000000000E+000  0.000000000000000E+000        
  0.000000000000000E+000  0.000000000000000E+000  0.000000000000000E+000        
  0.000000000000000E+000                                                        
   1.42800000000000       1.759400000000000E-002  0.288979000000000             
   1.00000000000000       0.000000000000000E+000  0.000000000000000E+000        
  0.000000000000000E+000  0.000000000000000E+000  0.000000000000000E+000        
  0.000000000000000E+000                                                        
  0.554700000000000      -2.502000000000000E-003  0.586128000000000             
  0.000000000000000E+000   1.00000000000000       0.000000000000000E+000        
  0.000000000000000E+000  0.000000000000000E+000  0.000000000000000E+000        
  0.000000000000000E+000                                                        
  0.206700000000000       9.540000000000000E-004  0.277624000000000             
  0.000000000000000E+000  0.000000000000000E+000   1.00000000000000             
  0.000000000000000E+000  0.000000000000000E+000  0.000000000000000E+000        
  0.000000000000000E+000                                                        
   12.9740000000000       0.000000000000000E+000  0.000000000000000E+000        
  0.000000000000000E+000  0.000000000000000E+000  0.000000000000000E+000        
   1.00000000000000       0.000000000000000E+000  0.000000000000000E+000        
  0.000000000000000E+000                                                        
   34.9000000000000       0.000000000000000E+000  0.000000000000000E+000        
  0.000000000000000E+000  0.000000000000000E+000  0.000000000000000E+000        
  0.000000000000000E+000   1.00000000000000       0.000000000000000E+000        
  0.000000000000000E+000                                                        
   93.8810000000000       0.000000000000000E+000  0.000000000000000E+000        
  0.000000000000000E+000  0.000000000000000E+000  0.000000000000000E+000        
  0.000000000000000E+000  0.000000000000000E+000   1.00000000000000             
  0.000000000000000E+000                                                        
  6.959000000000000E-002  0.000000000000000E+000  0.000000000000000E+000        
  0.000000000000000E+000  0.000000000000000E+000  0.000000000000000E+000        
  0.000000000000000E+000  0.000000000000000E+000  0.000000000000000E+000        
   1.00000000000000                                                             
   10    8                                                                      
   63.4200000000000       6.044000000000000E-003  0.000000000000000E+000        
  0.000000000000000E+000  0.000000000000000E+000  0.000000000000000E+000        
  0.000000000000000E+000  0.000000000000000E+000  0.000000000000000E+000        
   14.6600000000000       4.179900000000000E-002  0.000000000000000E+000        
  0.000000000000000E+000  0.000000000000000E+000  0.000000000000000E+000        
  0.000000000000000E+000  0.000000000000000E+000  0.000000000000000E+000        
   4.45900000000000       0.161143000000000       0.000000000000000E+000        
  0.000000000000000E+000  0.000000000000000E+000  0.000000000000000E+000        
  0.000000000000000E+000  0.000000000000000E+000  0.000000000000000E+000        
   1.53100000000000       0.356731000000000        1.00000000000000             
  0.000000000000000E+000  0.000000000000000E+000  0.000000000000000E+000        
  0.000000000000000E+000  0.000000000000000E+000  0.000000000000000E+000        
  0.530200000000000       0.448309000000000       0.000000000000000E+000        
   1.00000000000000       0.000000000000000E+000  0.000000000000000E+000        
  0.000000000000000E+000  0.000000000000000E+000  0.000000000000000E+000        
  0.175000000000000       0.244940000000000       0.000000000000000E+000        
  0.000000000000000E+000   1.00000000000000       0.000000000000000E+000        
  0.000000000000000E+000  0.000000000000000E+000  0.000000000000000E+000        
   14.4750000000000       0.000000000000000E+000  0.000000000000000E+000        
  0.000000000000000E+000  0.000000000000000E+000   1.00000000000000             
  0.000000000000000E+000  0.000000000000000E+000  0.000000000000000E+000        
   42.7300000000000       0.000000000000000E+000  0.000000000000000E+000        
  0.000000000000000E+000  0.000000000000000E+000  0.000000000000000E+000        
   1.00000000000000       0.000000000000000E+000  0.000000000000000E+000        
   126.140000000000       0.000000000000000E+000  0.000000000000000E+000        
  0.000000000000000E+000  0.000000000000000E+000  0.000000000000000E+000        
  0.000000000000000E+000   1.00000000000000       0.000000000000000E+000        
  5.348000000000000E-002  0.000000000000000E+000  0.000000000000000E+000        
  0.000000000000000E+000  0.000000000000000E+000  0.000000000000000E+000        
  0.000000000000000E+000  0.000000000000000E+000   1.00000000000000             
    6    6                                                                      
   3.77500000000000        1.00000000000000       0.000000000000000E+000        
  0.000000000000000E+000  0.000000000000000E+000  0.000000000000000E+000        
  0.000000000000000E+000                                                        
   1.30000000000000       0.000000000000000E+000   1.00000000000000             
  0.000000000000000E+000  0.000000000000000E+000  0.000000000000000E+000        
  0.000000000000000E+000                                                        
  0.444000000000000       0.000000000000000E+000  0.000000000000000E+000        
   1.00000000000000       0.000000000000000E+000  0.000000000000000E+000        
  0.000000000000000E+000                                                        
   14.9270000000000       0.000000000000000E+000  0.000000000000000E+000        
  0.000000000000000E+000   1.00000000000000       0.000000000000000E+000        
  0.000000000000000E+000                                                        
   57.5440000000000       0.000000000000000E+000  0.000000000000000E+000        
  0.000000000000000E+000  0.000000000000000E+000   1.00000000000000             
  0.000000000000000E+000                                                        
  0.154000000000000       0.000000000000000E+000  0.000000000000000E+000        
  0.000000000000000E+000  0.000000000000000E+000  0.000000000000000E+000        
   1.00000000000000                                                             
    4    4                                                                      
   2.66600000000000        1.00000000000000       0.000000000000000E+000        
  0.000000000000000E+000  0.000000000000000E+000                                
  0.859000000000000       0.000000000000000E+000   1.00000000000000             
  0.000000000000000E+000  0.000000000000000E+000                                
   26.4830000000000       0.000000000000000E+000  0.000000000000000E+000        
   1.00000000000000       0.000000000000000E+000                                
  0.324000000000000       0.000000000000000E+000  0.000000000000000E+000        
  0.000000000000000E+000   1.00000000000000                                     
    2    2                                                                      
   1.84600000000000        1.00000000000000       0.000000000000000E+000        
  0.714000000000000       0.000000000000000E+000   1.00000000000000             
FINISH                                                                          
 
********************************************************************************
 ONE- AND TWO-ELECTRON INTEGRALS OVER SYMMETRY-ADAPTED AOS ARE CALCULATED.

  SPHERICAL HARMONICS ARE USED.
  
  INTEGRALS LESS THAN  0.10E-13 ARE NEGLECTED.

  NUCLEAR REPULSION ENERGY :   20.9861687521 A.U.
  @MOLECU-I, ONE ELECTRON INTEGRALS (CPU/WALL):        0.06/       0.06 SECONDS.
  @TWOEL-I,    4560217 INTEGRALS OF SYMMETRY TYPE  I I I I
  @TWOEL-I,   19597625 INTEGRALS OF SYMMETRY TYPE  I J I J
  @TWOEL-I,   10326678 INTEGRALS OF SYMMETRY TYPE  I I J J
  @TWOEL-I,   14500337 INTEGRALS OF SYMMETRY TYPE  I J K L
  @TWOEL-I, TOTAL NUMBER OF 2-E INTEGRALS   48984857.
  @MOLECU-I, TWO ELECTRON INTEGRALS (CPU/WALL):      149.78/      20.58 SECONDS.
 @CHECKOUT-I, Total execution time (CPU/WALL):      149.86/      20.66 seconds.

Running with 14 threads/proc

--executable xvmol finished with status     0 in       20.69 seconds (walltime).
 --invoking executable--
/nfs/workspaces/public/cfour_mpi/bin/xvmol2ja
 @GETMEM-I,  Allocated    3814 MB of main memory.
 @CHECKOUT-I, Total execution time (CPU/WALL):        0.13/       0.03 seconds.
--executable xvmol2ja finished with status     0 in        0.06 seconds (walltime).
 --invoking executable--
/nfs/workspaces/public/cfour_mpi/bin/xvprop
 @GETMEM-I,  Allocated    3814 MB of main memory.
   Property integrals will be calculated.
    --------------------------------------------------------------
                                   Property evaluated at 
    Property type                X             Y             Z
    --------------------------------------------------------------
    Dipole moment               ----          ----          ----  
    Quadrupole moment           ----          ----          ----  
    Octopole moment             ----          ----          ----  
    Relativisitic corr.         ----          ----          ----  
    Second moment            0.0000000     0.0000000     0.0000000
    Electron density         0.0000000     0.0000000     1.2615891
    Electron density         0.0000000     0.0000000    -1.0256316
    Field gradient           0.0000000     0.0000000     1.2615891
    Field gradient           0.0000000     0.0000000    -1.0256316
    Potential                0.0000000     0.0000000     1.2615891
    Potential                0.0000000     0.0000000    -1.0256316
    --------------------------------------------------------------
 @CHECKOUT-I, Total execution time (CPU/WALL):        1.28/       1.29 seconds.
--executable xvprop finished with status     0 in        1.30 seconds (walltime).
 --invoking executable--
/nfs/workspaces/public/cfour_mpi/bin/xvscf
  There are  218 functions in the AO basis.

  There are 4 irreducible representations.

       Irrep        # of functions
         1                 86
         2                 52
         3                 52
         4                 28


  Parameters for SCF calculation: 
        SCF reference function:  RHF  
  Maximum number of iterations:  150
     Full symmetry point group: CXv 
     Computational point group: C2v 
        Initial density matrix: MOREAD                 
     SCF convergence tolerance: 10**(-10)
  DIIS convergence acceleration:  ON
          Latest start for DIIS:   8
                     DIIS order:   6

  Memory information:    2523578 words required.
  Fock matrices are constructed from AO integral file.
 @GETMEM-I,  Allocated      19 MB of main memory.
  Initialization and symmetry analysis required      0.001 seconds.

  Adding electric field perturbation to one-electron Hamiltonian.
  Field direction     : Z
  Field strength      : -0.0002000 a.u.

  @INITGES-I, Occupancies from core Hamiltonian:

          Alpha population by irrep:   5    1    1    0
           Beta population by irrep:   5    1    1    0


 total no. of electrons in initial guess :  0.000000000000000E+000
  --------------------------------------------------------------------
  Iteration         Total Energy            Largest Density Difference
  --------------------------------------------------------------------
       0            20.986041648416002              0.0000000000D+00
   current occupation vector 
     5  1  1  0
     5  1  1  0
       1           -92.347209132406519              0.1826956786D+02
   current occupation vector 
     5  1  1  0
     5  1  1  0
       2           -97.758928809359418              0.1826505656D+02
   current occupation vector 
     5  1  1  0
     5  1  1  0
       3          -103.503395850420645              0.9466207714D+01
   current occupation vector 
     5  1  1  0
     5  1  1  0
       4           -99.976121783906322              0.7318544177D+01
   current occupation vector 
     5  1  1  0
     5  1  1  0
       5          -102.625998967223751              0.6068334308D+01
   current occupation vector 
     5  1  1  0
     5  1  1  0
       6           -99.365654261295319              0.5879752901D+01
   current occupation vector 
     5  1  1  0
     5  1  1  0
       7          -102.606352740249520              0.5902426805D+01
   current occupation vector 
     5  1  1  0
     5  1  1  0
       8           -99.244119280601510              0.5896749316D+01
   current occupation vector 
     5  1  1  0
     5  1  1  0
       9          -110.111316919993186              0.4460295146D+01
   current occupation vector 
     5  1  1  0
     5  1  1  0
      10          -111.928622834039828              0.1046942176D+01
   current occupation vector 
     5  1  1  0
     5  1  1  0
      11          -112.721950075030151              0.6039764845D+00
   current occupation vector 
     5  1  1  0
     5  1  1  0
      12          -112.764488465848927              0.1561324477D+00
   current occupation vector 
     5  1  1  0
     5  1  1  0
      13          -112.765515585493745              0.3943130219D-01
   current occupation vector 
     5  1  1  0
     5  1  1  0
      14          -112.765669485096140              0.1735094126D-01
   current occupation vector 
     5  1  1  0
     5  1  1  0
      15          -112.765690265507402              0.8957953614D-02
   current occupation vector 
     5  1  1  0
     5  1  1  0
      16          -112.765690476201826              0.6539165233D-03
   current occupation vector 
     5  1  1  0
     5  1  1  0
      17          -112.765690484822471              0.1295105184D-03
   current occupation vector 
     5  1  1  0
     5  1  1  0
      18          -112.765690485132069              0.3024261312D-04
   current occupation vector 
     5  1  1  0
     5  1  1  0
      19          -112.765690485146422              0.6175998637D-05
   current occupation vector 
     5  1  1  0
     5  1  1  0
      20          -112.765690485144432              0.1058239759D-05
   current occupation vector 
     5  1  1  0
     5  1  1  0
      21          -112.765690485146649              0.1287257909D-06
   current occupation vector 
     5  1  1  0
     5  1  1  0
      22          -112.765690485146052              0.2726978976D-07
   current occupation vector 
     5  1  1  0
     5  1  1  0
      23          -112.765690485145910              0.1496517910D-07
   current occupation vector 
     5  1  1  0
     5  1  1  0
      24          -112.765690485145910              0.2882412919D-09
   current occupation vector 
     5  1  1  0
     5  1  1  0
      25          -112.765690485144944              0.2024054258D-09
   current occupation vector 
     5  1  1  0
     5  1  1  0
      26          -112.765690485146564              0.1830078311D-09
   current occupation vector 
     5  1  1  0
     5  1  1  0

  SCF has converged.

 Density matrix saved to file den.dat
 total electron number:   13.9999999999999     
     E(SCF)=      -112.765690485146081              0.3996825093D-10

  Eigenvector printing suppressed.

 @PUTMOS-I, Writing converged MOs to NEWMOS. 
 @PUTMOS-I, Symmetry   1 Full Blocks 21 Partial Blocksize   2
 @PUTMOS-I, Symmetry   2 Full Blocks 13 Partial Blocksize   0
 @PUTMOS-I, Symmetry   3 Full Blocks 13 Partial Blocksize   0
 @PUTMOS-I, Symmetry   4 Full Blocks  7 Partial Blocksize   0
 @PUTFOCK-I, Writing converged Fock matrix to NEWFOCK. 
 @PUTFOCK-I, Symmetry   1 Full Blocks 21 Partial Blocksize   2
 @PUTFOCK-I, Symmetry   2 Full Blocks 13 Partial Blocksize   0
 @PUTFOCK-I, Symmetry   3 Full Blocks 13 Partial Blocksize   0
 @PUTFOCK-I, Symmetry   4 Full Blocks  7 Partial Blocksize   0


 
  ORBITAL EIGENVALUES (ALPHA)  (1H = 27.2113834 eV)

       MO #        E(hartree)               E(eV)           FULLSYM    COMPSYM
       ----   --------------------   --------------------   -------   ---------
    1     1         -20.6669575836        -562.3765065202     SG+        A1 (1)
    2     2         -11.3966857596        -310.1195856932     SG+        A1 (1)
    3     3          -1.4669060108         -39.9165418712     SG+        A1 (1)
    4     4          -0.7981583665         -21.7189933254     SG+        A1 (1)
    5   139          -0.6067266236         -16.5098707743      PI        B2 (3)
    6    87          -0.6067266236         -16.5098707743      PI        B1 (2)
    7     5          -0.5628309406         -15.3154085149     SG+        A1 (1)
  +++++++++++++++++++++++++++++++++++++++++++++++++++++++++++++++++++++++++++++
    8   140           0.0584250711           1.5898270100      PI        B2 (3)
    9    88           0.0584250711           1.5898270100      PI        B1 (2)
   10     6           0.0618936351           1.6842114348     SG+        A1 (1)
   11     7           0.0720824824           1.9614640656     SG+        A1 (1)
   12   141           0.1205052037           3.2791133006      PI        B2 (3)
   13    89           0.1205052037           3.2791133006      PI        B1 (2)
   14     8           0.1569078755           4.2696803579     SG+        A1 (1)
   15   142           0.1669678624           4.5434265189      PI        B2 (3)
   16    90           0.1669678624           4.5434265189      PI        B1 (2)
   17     9           0.2272454240           6.1836623590      DE        A1 (1)
   18   191           0.2272454240           6.1836623590      DE        A2 (4)
   19    10           0.2284311906           6.2159287080     SG+        A1 (1)
   20    11           0.3002097110           8.1691215462     SG+        A1 (1)
   21   143           0.3120596659           8.4915752120      PI        B2 (3)
   22    91           0.3120596659           8.4915752121      PI        B1 (2)
   23    12           0.3876111712          10.5474361888     SG+        A1 (1)
   24   144           0.3952561892          10.7554677063      PI        B2 (3)
   25    92           0.3952561892          10.7554677064      PI        B1 (2)
   26    13           0.5091485743          13.8546370615     SG+        A1 (1)
   27    14           0.5395797625          14.6827117913      DE        A1 (1)
   28   192           0.5395797625          14.6827117913      DE        A2 (4)
   29    15           0.6138712096          16.7042848437     SG+        A1 (1)
   30   145           0.6254049557          17.0181340305      PI        B2 (3)
   31    93           0.6254049557          17.0181340305      PI        B1 (2)
   32   146           0.7466190156          20.3165362881      PH        B2 (3)
   33    94           0.7466190156          20.3165362881      PH        B1 (2)
   34   193           0.7645453489          20.8043366168      DE        A2 (4)
   35    16           0.7645453489          20.8043366168      DE        A1 (1)
   36    17           0.7769373877          21.1415411331     SG+        A1 (1)
   37   147           0.8130760932          22.1249253042      PI        B2 (3)
   38    95           0.8130760932          22.1249253042      PI        B1 (2)
   39    18           0.8582027760          23.3528847726     SG+        A1 (1)
   40    19           0.8754115575          23.8211595243     SG+        A1 (1)
   41   194           0.8859305754          24.1073965530      DE        A2 (4)
   42    20           0.8859305754          24.1073965530      DE        A1 (1)
   43   148           0.8875374085          24.1511207050      PI        B2 (3)
   44    96           0.8875374085          24.1511207051      PI        B1 (2)
   45   149           1.0590561138          28.8183819540      PI        B2 (3)
   46    97           1.0590561138          28.8183819540      PI        B1 (2)
   47    21           1.1484938768          31.2521072129     SG+        A1 (1)
   48   150           1.4416137966          39.2283057347      PH        B2 (3)
   49    98           1.4416137966          39.2283057347      PH        B1 (2)
   50    22           1.4455124455          39.3343933648     SG+        A1 (1)
   51    23           1.5312864243          41.6684219871      DE        A1 (1)
   52   195           1.5312864243          41.6684219871      DE        A2 (4)
   53    99           1.5651489658          42.5898685856      PI        B1 (2)
   54   151           1.5651489658          42.5898685856      PI        B2 (3)
   55    24           1.6654466658          45.3191077564     SG+        A1 (1)
   56   100           1.7434003849          47.4403362931      PI        B1 (2)
   57   152           1.7434003849          47.4403362931      PI        B2 (3)
   58   196           1.7569059974          47.8078426922      DE        A2 (4)
   59    25           1.7569059974          47.8078426922      DE        A1 (1)
   60    26           1.8007081166          48.9997589519     SG+        A1 (1)
   61   101           2.0075875173          54.6292336417      PI        B1 (2)
   62   153           2.0075875173          54.6292336417      PI        B2 (3)
   63    27           2.0872277320          56.7963540593     SG+        A1 (1)
   64   197           2.0996322631          57.1338985102      PI        A2 (4)
   65    28           2.0996322631          57.1338985102      PI        A1 (1)
   66   198           2.1798869402          59.3177392974      DE        A2 (4)
   67    29           2.1798869402          59.3177392974      DE        A1 (1)
   68   102           2.2444207493          61.0737935200      PH        B1 (2)
   69   154           2.2444207493          61.0737935200      PH        B2 (3)
   70   155           2.3073454163          62.7860607602      PI        B2 (3)
   71   103           2.3073454163          62.7860607602      PI        B1 (2)
   72    30           2.3080650021          62.8056416849     SG+        A1 (1)
   73   104           2.3331402379          63.4879735392      PH        B1 (2)
   74   156           2.3331402379          63.4879735392      PH        B2 (3)
   75    31           2.3506982323          63.9657508566      DE        A1 (1)
   76   199           2.3506982323          63.9657508566      DE        A2 (4)
   77    32           2.4812521548          67.5183036954     SG+        A1 (1)
   78   157           2.5771648917          70.1282219538      PI        B2 (3)
   79   105           2.5771648917          70.1282219538      PI        B1 (2)
   80   158           2.7624696863          75.1706217646      PI        B2 (3)
   81   106           2.7624696863          75.1706217646      PI        B1 (2)
   82    33           2.8280389582          76.9548523624     SG+        A1 (1)
   83   200           2.9391775633          79.9790875568      DE        A2 (4)
   84    34           2.9391775633          79.9790875570      DE        A1 (1)
   85    35           3.4749835953          94.5591109201     SG+        A1 (1)
   86    36           3.7114424123         100.9934824484      PI        A1 (1)
   87   201           3.7114424123         100.9934824484      PI        A2 (4)
   88   159           3.7149344321         101.0885051381      PI        B2 (3)
   89   107           3.7149344321         101.0885051381      PI        B1 (2)
   90    37           3.9181352392         106.6178802056     SG+        A1 (1)
   91   160           4.0878223927         111.2353023980      PH        B2 (3)
   92   108           4.0878223927         111.2353023980      PH        B1 (2)
   93    38           4.1860241717         113.9075086574      DE        A1 (1)
   94   202           4.1860241717         113.9075086574      DE        A2 (4)
   95   109           4.2015691175         114.3305081369      PH        B1 (2)
   96   161           4.2015691175         114.3305081369      PH        B2 (3)
   97   110           4.2017126599         114.3344141242      PI        B1 (2)
   98   162           4.2017126599         114.3344141242      PI        B2 (3)
   99    39           4.2463373353         115.5487132764     SG+        A1 (1)
  100    40           4.3463425570         118.2699937054      DE        A1 (1)
  101   203           4.3463425570         118.2699937054      DE        A2 (4)
  102    41           4.4263921361         120.4482534940     SG+        A1 (1)
  103   163           4.8145953542         131.0118000979      PI        B2 (3)
  104   111           4.8145953542         131.0118000980      PI        B1 (2)
  105   112           5.0008096604         136.0789489797      PI        B1 (2)
  106   164           5.0008096604         136.0789489797      PI        B2 (3)
  107   204           5.0901326032         138.5095498218      DE        A2 (4)
  108    42           5.0901326032         138.5095498220      DE        A1 (1)
  109    43           5.1270461015         139.5140171767     SG+        A1 (1)
  110    44           5.5596508276         151.2857902409     SG+        A1 (1)
  111   113           5.7194550764         155.6342849237      PI        B1 (2)
  112   165           5.7194550764         155.6342849238      PI        B2 (3)
  113   205           5.8883015939         160.2288322465      PI        A2 (4)
  114    45           5.8883015939         160.2288322466      PI        A1 (1)
  115   166           6.0633342890         164.9917140208      PH        B2 (3)
  116   114           6.0633342890         164.9917140208      PH        B1 (2)
  117    46           6.2370330033         169.7182963323     SG+        A1 (1)
  118   206           6.2747892192         170.7456951979      DE        A2 (4)
  119    47           6.2747892192         170.7456951979      DE        A1 (1)
  120   167           6.3030442439         171.5145535080      PI        B2 (3)
  121   115           6.3030442439         171.5145535080      PI        B1 (2)
  122   168           6.4282865078         174.9225687687      PH        B2 (3)
  123   116           6.4282865078         174.9225687687      PH        B1 (2)
  124   207           6.5591406093         178.4832898936      DE        A2 (4)
  125    48           6.5591406093         178.4832898937      DE        A1 (1)
  126    49           6.8308656705         185.8773047151     SG+        A1 (1)
  127   208           7.0576892526         192.0494881705      DE        A2 (4)
  128    50           7.0576892526         192.0494881705      DE        A1 (1)
  129   169           7.3075676742         198.8490257043      PI        B2 (3)
  130   117           7.3075676742         198.8490257043      PI        B1 (2)
  131    51           7.6621881129         208.4987384220     SG+        A1 (1)
  132    52           8.1449310532         221.6348416542     SG+        A1 (1)
  133   170           8.2328996431         224.0285886834      PI        B2 (3)
  134   118           8.2328996431         224.0285886835      PI        B1 (2)
  135   171          10.1130870321         275.1910885877      PI        B2 (3)
  136   119          10.1130870321         275.1910885878      PI        B1 (2)
  137    53          10.4937926963         285.5506163797     SG+        A1 (1)
  138    54          10.6068574188         288.6272638922      PI        A1 (1)
  139   209          10.6068574188         288.6272638922      PI        A2 (4)
  140   120          10.8335902541         294.7969780041      PH        B1 (2)
  141   172          10.8335902541         294.7969780041      PH        B2 (3)
  142    55          11.0135909690         299.6950464691     SG+        A1 (1)
  143   210          11.0722105490         301.2901663332      DE        A2 (4)
  144    56          11.0722105490         301.2901663332      DE        A1 (1)
  145   173          11.3107144036         307.7801861652      PI        B2 (3)
  146   121          11.3107144036         307.7801861652      PI        B1 (2)
  147    57          11.4882943042         312.6123809238     SG+        A1 (1)
  148   174          11.8559880537         322.6178365142      PH        B2 (3)
  149   122          11.8559880537         322.6178365142      PH        B1 (2)
  150    58          12.2106572410         332.2688757500      DE        A1 (1)
  151   211          12.2106572410         332.2688757507      DE        A2 (4)
  152   175          12.5679449419         341.9911683644      PI        B2 (3)
  153   123          12.5679449419         341.9911683645      PI        B1 (2)
  154   212          12.8295101750         349.1087202048      DE        A2 (4)
  155    59          12.8295101750         349.1087202049      DE        A1 (1)
  156    60          13.0750702017         355.7907482395     SG+        A1 (1)
  157   176          13.7554187833         374.3039743389      PI        B2 (3)
  158   124          13.7554187833         374.3039743389      PI        B1 (2)
  159    61          15.0496011783         409.5204676805     SG+        A1 (1)
  160    62          17.9276925890         487.8373165168     SG+        A1 (1)
  161   125          19.2438223091         523.6510269331      PI        B1 (2)
  162   177          19.2438223091         523.6510269332      PI        B2 (3)
  163    63          20.5366998179         558.8320125160     SG+        A1 (1)
  164    64          26.4605091910         720.0270605558      DE        A1 (1)
  165   213          26.4605091910         720.0270605559      DE        A2 (4)
  166   178          26.8958870965         731.8742956665      PI        B2 (3)
  167   126          26.8958870965         731.8742956665      PI        B1 (2)
  168    65          27.8637558702         758.2113439480     SG+        A1 (1)
  169   179          33.7641997294         918.7705840298      PI        B2 (3)
  170   127          33.7641997294         918.7705840300      PI        B1 (2)
  171    66          34.8027540082         947.0310826941     SG+        A1 (1)
  172    67          36.5053812671         993.3619258211     SG+        A1 (1)
  173    68          47.1039249800        1281.7629622768      DE        A1 (1)
  174   214          47.1039249800        1281.7629622768      DE        A2 (4)
  175   128          47.5157193583        1292.9684569848      PI        B1 (2)
  176   180          47.5157193583        1292.9684569848      PI        B2 (3)
  177    69          48.3385332258        1315.3583606021     SG+        A1 (1)
  178    70          64.1154619164        1744.6704160766     SG+        A1 (1)
  179   181          66.7168752807        1815.4584725125      PI        B2 (3)
  180   129          66.7168752807        1815.4584725126      PI        B1 (2)
  181    71          67.7137919565        1842.5859543969     SG+        A1 (1)
  182   130          98.6379044949        2684.0738369837      PH        B1 (2)
  183   182          98.6379044949        2684.0738369837      PH        B2 (3)
  184   215          98.6554336058        2684.5508283405      DE        A2 (4)
  185    72          98.6554336058        2684.5508283405      DE        A1 (1)
  186   131          98.7073317764        2685.9630493575      PI        B1 (2)
  187   183          98.7073317764        2685.9630493575      PI        B2 (3)
  188    73          98.7242868946        2686.4244215801     SG+        A1 (1)
  189   132         103.2825495206        2810.4610535353      PH        B1 (2)
  190   184         103.2825495206        2810.4610535353      PH        B2 (3)
  191   216         103.3219551567        2811.5333354059      DE        A2 (4)
  192    74         103.3219551567        2811.5333354071      DE        A1 (1)
  193   133         103.3543966929        2812.4161144870      PI        B1 (2)
  194   185         103.3543966929        2812.4161144870      PI        B2 (3)
  195    75         103.3926100727        2813.4559534151     SG+        A1 (1)
  196    76         115.1299733101        3132.8458445718      DE        A1 (1)
  197   217         115.1299733101        3132.8458445718      DE        A2 (4)
  198   134         115.3429344352        3138.6408113975      PI        B1 (2)
  199   186         115.3429344352        3138.6408113975      PI        B2 (3)
  200    77         115.8286104641        3151.8567280272     SG+        A1 (1)
  201   187         117.0182456543        3184.2283472953      PI        B2 (3)
  202   135         117.0182456543        3184.2283472956      PI        B1 (2)
  203    78         117.8341231381        3206.4295023150     SG+        A1 (1)
  204    79         122.7099576568        3339.1077047982     SG+        A1 (1)
  205    80         198.5662500398        5403.2623601335      DE        A1 (1)
  206   218         198.5662500398        5403.2623601335      DE        A2 (4)
  207   136         198.7870765199        5409.2713541481      PI        B1 (2)
  208   188         198.7870765199        5409.2713541481      PI        B2 (3)
  209    81         199.2001973541        5420.5129435571     SG+        A1 (1)
  210    82         216.6023917170        5894.0507263674     SG+        A1 (1)
  211   189         225.1438180164        6126.4747521839      PI        B2 (3)
  212   137         225.1438180164        6126.4747521840      PI        B1 (2)
  213    83         225.9578388271        6148.6253845607     SG+        A1 (1)
  214   190         395.4765732434       10761.4646602439      PI        B2 (3)
  215   138         395.4765732434       10761.4646602443      PI        B1 (2)
  216    84         396.1491721093       10779.7670058601     SG+        A1 (1)
  217    85         509.2844196209       13858.3336019519     SG+        A1 (1)
  218    86         895.4304036141       24365.9000207613     SG+        A1 (1)


  VSCF finished.

 @CHECKOUT-I, Total execution time (CPU/WALL):       43.66/       7.86 seconds.
--executable xvscf finished with status     0 in        7.88 seconds (walltime).
 --invoking executable--
/nfs/workspaces/public/cfour_mpi/bin/xvtran
 @GETMEM-I,  Allocated    3814 MB of main memory.
  Full RHF integral transformation
  Transformation of IIII integrals :
  1 pass through the AO integral file was required.
     4560217 AO integrals were read.
     8768504 MO integrals were written to HF2.
  Transformation of IIJJ integrals :
  1 pass through the AO integral file was required.
    10326678 AO integrals were read.
    14592301 MO integrals were written to HF2.
  Transformation of IJIJ integrals :
  1 pass through the AO integral file was required.
    19597625 AO integrals were read.
    27383200 MO integrals were written to HF2.
  Transformation of IJKL integrals :
  1 pass through the AO integral file was required.
    14500337 AO integrals were read.
    18499290 MO integrals were written to HF2.
  Summary of active molecular orbitals: 
------------------------------------------------------------------------
 
  Index      Eigenvalue    Symmetry    Index      Eigenvalue    Symmetry
------------------------------------------------------------------------
     1       -20.6669576        1       110         4.2015691        2
     2       -11.3966858        1       111         4.2017127        2
     3        -1.4669060        1       112         4.8145954        2
     4        -0.7981584        1       113         5.0008097        2
     5        -0.5628309        1       114         5.7194551        2
     6        -0.6067266        2       115         6.0633343        2
     7        -0.6067266        3       116         6.3030442        2
     8         0.0618936        1       117         6.4282865        2
     9         0.0720825        1       118         7.3075677        2
    10         0.1569079        1       119         8.2328996        2
    11         0.2272454        1       120        10.1130870        2
    12         0.2284312        1       121        10.8335903        2
    13         0.3002097        1       122        11.3107144        2
    14         0.3876112        1       123        11.8559881        2
    15         0.5091486        1       124        12.5679449        2
    16         0.5395798        1       125        13.7554188        2
    17         0.6138712        1       126        19.2438223        2
    18         0.7645453        1       127        26.8958871        2
    19         0.7769374        1       128        33.7641997        2
    20         0.8582028        1       129        47.5157194        2
    21         0.8754116        1       130        66.7168753        2
    22         0.8859306        1       131        98.6379045        2
    23         1.1484939        1       132        98.7073318        2
    24         1.4455124        1       133       103.2825495        2
    25         1.5312864        1       134       103.3543967        2
    26         1.6654467        1       135       115.3429344        2
    27         1.7569060        1       136       117.0182457        2
    28         1.8007081        1       137       198.7870765        2
    29         2.0872277        1       138       225.1438180        2
    30         2.0996323        1       139       395.4765732        2
    31         2.1798869        1       140         0.0584251        3
    32         2.3080650        1       141         0.1205052        3
    33         2.3506982        1       142         0.1669679        3
    34         2.4812522        1       143         0.3120597        3
    35         2.8280390        1       144         0.3952562        3
    36         2.9391776        1       145         0.6254050        3
    37         3.4749836        1       146         0.7466190        3
    38         3.7114424        1       147         0.8130761        3
    39         3.9181352        1       148         0.8875374        3
    40         4.1860242        1       149         1.0590561        3
    41         4.2463373        1       150         1.4416138        3
    42         4.3463426        1       151         1.5651490        3
    43         4.4263921        1       152         1.7434004        3
    44         5.0901326        1       153         2.0075875        3
    45         5.1270461        1       154         2.2444207        3
    46         5.5596508        1       155         2.3073454        3
    47         5.8883016        1       156         2.3331402        3
    48         6.2370330        1       157         2.5771649        3
    49         6.2747892        1       158         2.7624697        3
    50         6.5591406        1       159         3.7149344        3
    51         6.8308657        1       160         4.0878224        3
    52         7.0576893        1       161         4.2015691        3
    53         7.6621881        1       162         4.2017127        3
    54         8.1449311        1       163         4.8145954        3
    55        10.4937927        1       164         5.0008097        3
    56        10.6068574        1       165         5.7194551        3
    57        11.0135910        1       166         6.0633343        3
    58        11.0722105        1       167         6.3030442        3
    59        11.4882943        1       168         6.4282865        3
    60        12.2106572        1       169         7.3075677        3
    61        12.8295102        1       170         8.2328996        3
    62        13.0750702        1       171        10.1130870        3
    63        15.0496012        1       172        10.8335903        3
    64        17.9276926        1       173        11.3107144        3
    65        20.5366998        1       174        11.8559881        3
    66        26.4605092        1       175        12.5679449        3
    67        27.8637559        1       176        13.7554188        3
    68        34.8027540        1       177        19.2438223        3
    69        36.5053813        1       178        26.8958871        3
    70        47.1039250        1       179        33.7641997        3
    71        48.3385332        1       180        47.5157194        3
    72        64.1154619        1       181        66.7168753        3
    73        67.7137920        1       182        98.6379045        3
    74        98.6554336        1       183        98.7073318        3
    75        98.7242869        1       184       103.2825495        3
    76       103.3219552        1       185       103.3543967        3
    77       103.3926101        1       186       115.3429344        3
    78       115.1299733        1       187       117.0182457        3
    79       115.8286105        1       188       198.7870765        3
    80       117.8341231        1       189       225.1438180        3
    81       122.7099577        1       190       395.4765732        3
    82       198.5662500        1       191         0.2272454        4
    83       199.2001974        1       192         0.5395798        4
    84       216.6023917        1       193         0.7645453        4
    85       225.9578388        1       194         0.8859306        4
    86       396.1491721        1       195         1.5312864        4
    87       509.2844196        1       196         1.7569060        4
    88       895.4304036        1       197         2.0996323        4
    89         0.0584251        2       198         2.1798869        4
    90         0.1205052        2       199         2.3506982        4
    91         0.1669679        2       200         2.9391776        4
    92         0.3120597        2       201         3.7114424        4
    93         0.3952562        2       202         4.1860242        4
    94         0.6254050        2       203         4.3463426        4
    95         0.7466190        2       204         5.0901326        4
    96         0.8130761        2       205         5.8883016        4
    97         0.8875374        2       206         6.2747892        4
    98         1.0590561        2       207         6.5591406        4
    99         1.4416138        2       208         7.0576893        4
   100         1.5651490        2       209        10.6068574        4
   101         1.7434004        2       210        11.0722105        4
   102         2.0075875        2       211        12.2106572        4
   103         2.2444207        2       212        12.8295102        4
   104         2.3073454        2       213        26.4605092        4
   105         2.3331402        2       214        47.1039250        4
   106         2.5771649        2       215        98.6554336        4
   107         2.7624697        2       216       103.3219552        4
   108         3.7149344        2       217       115.1299733        4
   109         4.0878224        2       218       198.5662500        4
------------------------------------------------------------------------
  -20.6669575836495       -11.3966857595781       -1.46690601078441     
 -0.798158366524377      -0.562830940629728      -0.606726623620688     
 -0.606726623620689       6.189363510170491E-002  7.208248242310825E-002
  0.156907875471654       0.227245424024424       0.228431190601735     
  0.300209710991720       0.387611171169217       0.509148574251204     
  0.539579762464326       0.613871209638580       0.764545348944983     
  0.776937387650242       0.858202775998635       0.875411557514162     
  0.885930575401381        1.14849387675250        1.44551244553197     
   1.53128642430965        1.66544666583768        1.75690599737116     
   1.80070811658540        2.08722773202744        2.09963226309973     
   2.17988694016139        2.30806500212265        2.35069823229339     
   2.48125215476693        2.82803895822475        2.93917756334968     
   3.47498359528749        3.71144241230936        3.91813523915074     
   4.18602417168470        4.24633733529302        4.34634255696829     
   4.42639213609398        5.09013260318201        5.12704610147451     
   5.55965082763516        5.88830159390397        6.23703300333860     
   6.27478921920147        6.55914060928231        6.83086567054489     
   7.05768925259758        7.66218811286314        8.14493105316516     
   10.4937926963202        10.6068574188035        11.0135909690311     
   11.0722105489581        11.4882943042047        12.2106572409709     
   12.8295101749538        13.0750702016663        15.0496011783235     
   17.9276925890083        20.5366998179161        26.4605091910118     
   27.8637558702000        34.8027540082412        36.5053812670580     
[...]
 Convergence information after     9 iterations: 
 Largest element of residual vector : -0.14183424E-04.
 Largest element of DIIS residual   : -0.67110101E-05.
 Convergence information after    10 iterations: 
 Largest element of residual vector : -0.73728569E-05.
 Largest element of DIIS residual   : -0.52168321E-05.
 Convergence information after    11 iterations: 
 Largest element of residual vector : -0.33365363E-05.
 Largest element of DIIS residual   : -0.99442366E-06.
 Convergence information after    12 iterations: 
 Largest element of residual vector : -0.14758210E-05.
 Largest element of DIIS residual   :  0.55732180E-06.
 Convergence information after    13 iterations: 
 Largest element of residual vector :  0.45703405E-06.
 Largest element of DIIS residual   :  0.17960889E-06.
 Convergence information after    14 iterations: 
 Largest element of residual vector :  0.18609352E-06.
 Largest element of DIIS residual   :  0.81257477E-07.
 Perturbed amplitude equations converged in    14 iterations.
  Dominant contributions to perturbed wavefunction:
    7    7  141   28   0.2398249279 ABAB
    7    7   28  141   0.2398249279 ABAB
    7    7  141   37  -0.1887273350 ABAB
    7    7   37  141  -0.1887273350 ABAB
    7    7  141   39   0.1715215554 ABAB
    7    7   39  141   0.1715215554 ABAB
    7    7  140   28   0.1578697494 ABAB
    7    7   28  140   0.1578697494 ABAB
    7    6   28   90   0.1556971131 ABAB
    6    7   90   28   0.1556971131 ABAB
    7    7  141   45   0.1407418815 ABAB
    7    7   45  141   0.1407418815 ABAB
    7    7  141   53  -0.1318755130 ABAB
    7    7   53  141  -0.1318755130 ABAB
    7    0   45    0  -0.1308937643 AA  
    7    7  141   55   0.1283578579 ABAB
    7    7   55  141   0.1283578579 ABAB
    7    7  141   20   0.1282572922 ABAB
    7    7   20  141   0.1282572922 ABAB
    7    7  141   19  -0.1229317201 ABAB
  norm of converged amps    2.24722140889395     
 Starting iterative solution of the perturbed Lambda equations.
 The DIIS procedure is used to accelerate convergence.
 Convergence criterion is 10**(-7).
 Maximum number of iterations is 100.
 Convergence information after     1 iterations: 
 Largest element of residual vector :  0.62710106E-01.
 Largest element of DIIS residual   :  0.62710106E-01.
 Convergence information after     2 iterations: 
 Largest element of residual vector : -0.92112018E-02.
 Largest element of DIIS residual   : -0.56515520E-02.
 Convergence information after     3 iterations: 
 Largest element of residual vector : -0.50016173E-02.
 Largest element of DIIS residual   : -0.43953620E-02.
 Convergence information after     4 iterations: 
 Largest element of residual vector : -0.30998304E-02.
 Largest element of DIIS residual   : -0.25186750E-02.
 Convergence information after     5 iterations: 
 Largest element of residual vector : -0.19449365E-02.
 Largest element of DIIS residual   : -0.96895783E-03.
 Convergence information after     6 iterations: 
 Largest element of residual vector : -0.66402334E-03.
 Largest element of DIIS residual   : -0.18253353E-03.
 Convergence information after     7 iterations: 
 Largest element of residual vector : -0.16135200E-03.
 Largest element of DIIS residual   :  0.65928772E-04.
 Convergence information after     8 iterations: 
 Largest element of residual vector :  0.39877992E-04.
 Largest element of DIIS residual   : -0.26453735E-04.
 Convergence information after     9 iterations: 
 Largest element of residual vector : -0.10361785E-04.
 Largest element of DIIS residual   : -0.64570797E-05.
 Convergence information after    10 iterations: 
 Largest element of residual vector : -0.56151504E-05.
 Largest element of DIIS residual   : -0.44622615E-05.
 Convergence information after    11 iterations: 
 Largest element of residual vector : -0.24823128E-05.
 Largest element of DIIS residual   : -0.95160500E-06.
 Convergence information after    12 iterations: 
 Largest element of residual vector : -0.12821701E-05.
 Largest element of DIIS residual   :  0.83541819E-06.
 Convergence information after    13 iterations: 
 Largest element of residual vector :  0.63746954E-06.
 Largest element of DIIS residual   :  0.38946564E-06.
 Convergence information after    14 iterations: 
 Largest element of residual vector :  0.34789668E-06.
 Largest element of DIIS residual   :  0.17121443E-06.
 Convergence information after    15 iterations: 
 Largest element of residual vector :  0.11348487E-06.
 Largest element of DIIS residual   :  0.53302701E-07.
 Perturbed Lambda equations converged in    15 iterations.
  Dominant contributions to perturbed wavefunction:
    7    7  141   28   0.2237474855 ABAB
    7    7   28  141   0.2237474855 ABAB
    7    7  141   37  -0.1775132097 ABAB
    7    7   37  141  -0.1775132097 ABAB
    7    7  141   39   0.1584240034 ABAB
    7    7   39  141   0.1584240034 ABAB
    7    7  140   28   0.1481815944 ABAB
    7    7   28  140   0.1481815944 ABAB
    7    6   28   90   0.1430438641 ABAB
    6    7   90   28   0.1430438641 ABAB
    7    7  141   45   0.1274814143 ABAB
    7    7   45  141   0.1274814143 ABAB
    7    7  141   53  -0.1217631488 ABAB
    7    7   53  141  -0.1217631488 ABAB
    7    7  141   55   0.1181601907 ABAB
    7    7   55  141   0.1181601907 ABAB
    7    7  141   20   0.1175236653 ABAB
    7    7   20  141   0.1175236653 ABAB
    5    5  141   45   0.1168271576 ABAB
    5    5   45  141   0.1168271576 ABAB
        The DBOC first-order density matrix is being calculated 
             (Symmetry block 3, perturbation   2)
 term   5.84539943254769     
 final tnorm  0.876589682185756     
  norm contr. I: |<0|L dT/dx|0>|^2   0.000000000000000E+000
  norm contr. II: <0|[nabla(1+L)e-T][nabla e^T]|0>   5.84539943254769     
  total norm contribution   5.84539943254769     
 oo  1.034777856949976E-002
 vv  -43.8685361398087     
 vo  5.064390194449921E-002
  Correlated perturbed 1-el contribution to DBOC  -43.8075444592947       cm**-1
  SUM_I |dc_I/dx|^2 contribution to DBOC   22.0062314028845       cm**-1
 
 
  The total diagonal Born-Oppenheimer correction (DBOC) is:      0.0040085146 a.u.
  The total diagonal Born-Oppenheimer correction (DBOC) is:        879.767272 cm-1
 
 Total CC energy including DBOC  -113.266952891539     
 First-order density matrix is being calculated  (Symmetry block 3, perturbation   2)
 Calculation of the contributions of <pq||rs> to dI(i,j)/dx required   1.4 seconds.
 Calculation of the contributions of <pq||rs> to dI(a,b)/dx required  12.9 seconds.
 Calculation of the contributions of <pq||rs> to dI(i,a)/dx required   8.7 seconds.
 First-order Z-vector equations are solved for 1 perturbation.
 Convergence reached after  18 iterations.
        U*G(pq,rs) contribution is being calculated
             (Symmetry block 3, perturbation   2)

 CCSD contribution to force constants 

        0.0000000000        0.0000000000        0.0000000000
        0.0000000000        0.0000000000        0.0000000000
        0.0000000000        0.0000000000        0.0000000000
        0.0000000000        0.0000000000        0.0000000000
        0.0000000000        0.0000000000        0.0000000000
        0.0000000000        0.0000000000        0.0000000000
        0.0000000000        0.0000000000        0.0000000000
        0.0000000000        0.0000000000        0.0000000000
        0.0000000000        0.0000000000        0.0000000000
        0.0000000000        0.0000000000        0.0000000000
        0.0000000000        0.0000000000        0.0000000000
        0.0000000000        0.9478821900       -0.9478821900

 CCSD contribution to dipole derivatives 

        0.0000000000        0.0000000000        0.0000000000
        0.0000000000        0.0000000000        0.0000000000
        0.0000000000        0.0000000000        0.0000000000
        0.0000000000        0.0000000000       -0.0479391223
        0.0000000000        0.0000000000        0.0000000000
        0.0000000000        0.0000000000        0.0000000000
 @CHECKOUT-I, Total execution time (CPU/WALL):      897.71/     186.76 seconds.
--executable xsdcc finished with status     0 in      186.80 seconds (walltime).
 --invoking executable--
/nfs/workspaces/public/cfour_mpi/bin/xanti
 @GETMEM-I,  Allocated    3814 MB of main memory.
 CCSD MO derivative gammas will be sorted to Mulliken order.
 @CHECKOUT-I, Total execution time (CPU/WALL):        9.75/      24.28 seconds.
--executable xanti finished with status     0 in       24.31 seconds (walltime).
 --invoking executable--
/nfs/workspaces/public/cfour_mpi/bin/xbcktrn
 @GETMEM-I,  Allocated    3814 MB of main memory.
 CCSD MO derivative gammas will be transformed to the AO basis.
 @CHECKOUT-I, Total execution time (CPU/WALL):       17.91/       3.24 seconds.
--executable xbcktrn finished with status     0 in        3.27 seconds (walltime).
 --invoking executable--
/nfs/workspaces/public/cfour_mpi/bin/xvdint
 @GETMEM-I,  Allocated    3814 MB of main memory.
 One- and two-electron integral derivatives are calculated
 for RHF-CC/MBPT hessians and dipole derivatives.
 Spherical gaussians are used.
  magnet F F
                    8722  records have been written to the Sort file.
  Total length of Sort file :             178609116  words.
 Evaluation of 2el integral derivatives

                      Two-electron integral gradient
                      ------------------------------

                         C #1 z     0.0000000000
                         O #2 z     0.0000000000


 C #1       0.0000000000           -0.3880810775            0.0000000000
 O #2       0.0000000000            0.3880810775            0.0000000000


 Evaluation of 2e integral derivatives required  259.27 seconds.
  contribution to Hessian
        0.0000000000        0.0000000000        0.0000000000
        0.0000000000       -0.3880810775        0.3880810775
 @CHECKOUT-I, Total execution time (CPU/WALL):      259.26/      58.57 seconds.
--executable xvdint finished with status     0 in       58.60 seconds (walltime).
 --invoking executable--
/nfs/workspaces/public/cfour_mpi/bin/xanti
 @GETMEM-I,  Allocated    3814 MB of main memory.
 CCSD MO gammas will be sorted to Mulliken order.
 @CHECKOUT-I, Total execution time (CPU/WALL):       10.33/       8.95 seconds.
--executable xanti finished with status     0 in        8.97 seconds (walltime).
 --invoking executable--
/nfs/workspaces/public/cfour_mpi/bin/xbcktrn
 @GETMEM-I,  Allocated    3814 MB of main memory.
 CCSD MO gammas will be transformed to the AO basis.
 @CHECKOUT-I, Total execution time (CPU/WALL):       23.39/       3.94 seconds.
--executable xbcktrn finished with status     0 in        3.97 seconds (walltime).
 --invoking executable--
/nfs/workspaces/public/cfour_mpi/bin/xvdint
 @GETMEM-I,  Allocated    3814 MB of main memory.
 One- and two-electron integral derivatives are calculated
 for RHF-CC/MBPT hessians and dipole derivatives.
 Spherical gaussians are used.
  magnet F F

                     Kinetic energy integral gradient
                     --------------------------------

                         C #1 z    -1.2640463713
                         O #2 z     1.2640463713


 C #1       0.0000000000            0.0000000000           -1.2640463713
 O #2       0.0000000000            0.0000000000            1.2640463713



                   Nuclear attraction integral gradient
                   ------------------------------------

                         C #1 z    21.5104998770
                         O #2 z   -21.5104998770


 C #1       0.0000000000            0.0000000000           21.5104998770
 O #2       0.0000000000            0.0000000000          -21.5104998770



                      Reorthonormalization gradient
                      -----------------------------

                         C #1 z     0.0000000000
                         O #2 z     0.0000000000


 C #1       0.0000000000            0.0000000000            0.0000000000
 O #2       0.0000000000            0.0000000000            0.0000000000



                     Kinetic energy integral Hessian
                     -------------------------------


           Symmetry 1

           C #1 z      O #2 z

 C #1 z    1.070382
 O #2 z   -1.070382    1.070382


           Symmetry 2

           C #1 x      O #2 x

 C #1 x   -1.492987
 O #2 x    1.492987   -1.492987


           Symmetry 3

           C #1 y      O #2 y

 C #1 y   -1.492987
 O #2 y    1.492987   -1.492987




           C #1 x      C #1 y      C #1 z      O #2 x      O #2 y      O #2 z

 C #1 x   -1.492987
 C #1 y    0.000000   -1.492987
 C #1 z    0.000000    0.000000    1.070382

 O #2 x    1.492987    0.000000    0.000000   -1.492987
 O #2 y    0.000000    1.492987    0.000000    0.000000   -1.492987
 O #2 z    0.000000    0.000000   -1.070382    0.000000    0.000000    1.070382




                   Nuclear attraction integral Hessian
                   -----------------------------------


           Symmetry 1

           C #1 z      O #2 z

 C #1 z  -12.764870
 O #2 z   12.764870  -12.764870


           Symmetry 2

           C #1 x      O #2 x

 C #1 x   17.324021
 O #2 x  -17.324021   17.324021


           Symmetry 3

           C #1 y      O #2 y

 C #1 y   17.324021
 O #2 y  -17.324021   17.324021




           C #1 x      C #1 y      C #1 z      O #2 x      O #2 y      O #2 z

 C #1 x   17.324021
 C #1 y    0.000000   17.324021
 C #1 z    0.000000    0.000000  -12.764870

 O #2 x  -17.324021    0.000000    0.000000   17.324021
 O #2 y    0.000000  -17.324021    0.000000    0.000000   17.324021
 O #2 z    0.000000    0.000000   12.764870    0.000000    0.000000  -12.764870




                Highest order reorthonormalization Hessian
                ------------------------------------------


           Symmetry 1

           C #1 z      O #2 z

 C #1 z    0.000000
 O #2 z    0.000000    0.000000


           Symmetry 2

           C #1 x      O #2 x

 C #1 x    0.000000
 O #2 x    0.000000    0.000000


           Symmetry 3

           C #1 y      O #2 y

 C #1 y    0.000000
 O #2 y    0.000000    0.000000




           C #1 x      C #1 y      C #1 z      O #2 x      O #2 y      O #2 z




                Electronic contributions to dipole moment
                -----------------------------------------

                               au             Debye

                    z      0.68630051      1.74440220

  Conversion factor used: 1 a.u. =   2.54174691 Debye 



   Electronic contributions to static part of dipole moment derivatives
   --------------------------------------------------------------------


                     Total dipole moment derivatives
                     -------------------------------


           Symmetry 1
                              Ez

               C #1 z    -5.71740044
               O #2 z    -8.28259956

           Symmetry 2
                              Ex

               C #1 x    -5.74994561
               O #2 x    -8.25005439

           Symmetry 3
                              Ey

               C #1 y    -5.74994561
               O #2 y    -8.25005439



                       Ex          Ey          Ez

      C #1    x   -5.749946    0.000000    0.000000
      C #1    y    0.000000   -5.749946    0.000000
      C #1    z    0.000000    0.000000   -5.717400

      O #2    x   -8.250054    0.000000    0.000000
      O #2    y    0.000000   -8.250054    0.000000
      O #2    z    0.000000    0.000000   -8.282600

 Evaluation of 1e integral derivatives required    1.65 seconds.
                    8815  records have been written to the Sort file.
  Total length of Sort file :             180513570  words.
 Evaluation of 2el integral derivatives

                      Two-electron integral gradient
                      ------------------------------

                         C #1 z   -10.4655295694
                         O #2 z    10.4655295694


 C #1       0.0000000000            0.0000000000          -10.4655295694
 O #2       0.0000000000            0.0000000000           10.4655295694


 Evaluation of 2e integral derivatives required  547.21 seconds.

                            Molecular gradient
                            ------------------

                         C #1 z     0.6055222928
                         O #2 z    -0.6055222928


 C #1       0.0000000000            0.0000000000            0.6055222928
 O #2       0.0000000000            0.0000000000           -0.6055222928


  Molecular gradient norm 0.856E+00

                            Molecular hessian
                            -----------------


           Symmetry 1

           C #1 z      O #2 z

 C #1 z   52.882764
 O #2 z  -52.882764   52.882764


           Symmetry 2

           C #1 x      O #2 x

 C #1 x   -0.324959
 O #2 x    0.324959   -0.324959


           Symmetry 3

           C #1 y      O #2 y

 C #1 y   -0.324959
 O #2 y    0.324959   -0.324959




           C #1 x      C #1 y      C #1 z      O #2 x      O #2 y      O #2 z

 C #1 x   -0.324959
 C #1 y    0.000000   -0.324959
 C #1 z    0.000000    0.000000   52.882764

 O #2 x    0.324959    0.000000    0.000000   -0.324959
 O #2 y    0.000000    0.324959    0.000000    0.000000   -0.324959
 O #2 z    0.000000    0.000000  -52.882764    0.000000    0.000000   52.882764




                           Total dipole moment
                           -------------------

                               au             Debye

                    z      0.05078190      0.12907474

  Conversion factor used: 1 a.u. =   2.54174691 Debye 



                     Total dipole moment derivatives
                     -------------------------------


           Symmetry 1
                              Ez

               C #1 z     0.71434819
               O #2 z    -0.71434819

           Symmetry 2
                              Ex

               C #1 x     0.02210344
               O #2 x    -0.02210344

           Symmetry 3
                              Ey

               C #1 y     0.02210344
               O #2 y    -0.02210344



                       Ex          Ey          Ez

      C #1    x    0.022103    0.000000    0.000000
      C #1    y    0.000000    0.022103    0.000000
      C #1    z    0.000000    0.000000    0.714348

      O #2    x   -0.022103    0.000000    0.000000
      O #2    y    0.000000   -0.022103    0.000000
      O #2    z    0.000000    0.000000   -0.714348

 @CHECKOUT-I, Total execution time (CPU/WALL):      548.85/      93.97 seconds.
--executable xvdint finished with status     0 in       94.00 seconds (walltime).
 --invoking executable--
/nfs/workspaces/public/cfour_mpi/bin/xjoda
  @GTFLGS-I, Hessian will be transformed to curvilinear coordinates.
  @GTFLGS-I, Hessian will be transformed to curvilinear coordinates.
  igrd and ihes are                      0                     1
  gradient from JOBARC 
   0.000000000000000   0.000000000000000   0.605522292775075
   0.000000000000000   0.000000000000000  -0.605522292775075
 
  @PROJFCM-I, Projecting force constant matrix onto totally symmetric subspace.
  Largest difference between matrix elements of symmetrized
  and unsymmetrized FCM :    -0.2326527859E-10.
  read isotopes from ZMAT file 
 
  Summary of diagonal Born-Oppenheimer correction at the correlated level
  The total diagonal Born-Oppenheimer correction (DBOC) is:      0.0040085146 a.u.
  The total diagonal Born-Oppenheimer correction (DBOC) is:        879.767272 cm-1
  The total diagonal Born-Oppenheimer correction (DBOC) is:            10.524 kJ/mole
  hellooooooo 
  readis is  F
 
 @CHECKOUT-I, Total execution time (CPU/WALL):        0.01/       0.01 seconds.
--executable xjoda finished with status     0 in        0.03 seconds (walltime).
  The final electronic energy is      -113.266952891538864 a.u. 
  This computation required                         2075.07 seconds (walltime).
