 --invoking executable--
/nfs/workspaces/public/cfour_mpi/bin/xjoda


   *************************************************************************
         <<<     CCCCCC     CCCCCC   |||     CCCCCC     CCCCCC   >>>
       <<<      CCC        CCC       |||    CCC        CCC         >>>
      <<<      CCC        CCC        |||   CCC        CCC            >>>
    <<<        CCC        CCC        |||   CCC        CCC              >>>
      <<<      CCC        CCC        |||   CCC        CCC            >>>
       <<<      CCC        CCC       |||    CCC        CCC         >>>
         <<<     CCCCCC     CCCCCC   |||     CCCCCC     CCCCCC   >>>
   *************************************************************************

     ****************************************************************
     * CFOUR Coupled-Cluster techniques for Computational Chemistry *
     ****************************************************************
 

   Department of Chemistry                Institut fuer Physikalische Chemie
   University of Florida                  Universitaet Mainz
   Gainesville, FL 32611, USA             D-55099 Mainz, Germany

   Department of Chemistry                Fakultaet fuer Chemie und Biowiss.
   Johns Hopkins University               Karlsruher Institut fuer Technologie
   Baltimore, MD 21218, USA               D-76131 Karlsruhe, Germany

   Department of Chemistry                Department of Physical Chemistry
   Southern Methodist University          Eotvos Lorand University
   Dallas, TX 75275, USA                  H-1053 Budapest, Hungary

 
                       Version 2.1
 
                     vincent.theory.phys.ucl.ac.uk                     
                     Wed 26 Feb 10:52:09 GMT 2025                      
                     integer*8 version is running
 
********************************************************************************
*                          Input from ZMAT file                                *
********************************************************************************
Carbon Monoxide DBOC calculation                                                
C                                                                               
O 1 r                                                                           
                                                                                
r=0.9                                                                           
                                                                                
                                                                                
*CFOUR(CALC=CCSD,BASIS=AUG-PCVQZ,SCF_CONV=10                                    
CC_CONV=14,DBOC=ON,MEMORY=500000000                                             
ZFIELD=200)                                                                     
                                                                                
%isotopes                                                                       
12                                                                              
16                                                                              
********************************************************************************
  @GTFLGS-I, Hessian will be transformed to curvilinear coordinates.
    -------------------------------------------------------------------
                    CFOUR Control Parameters 
    -------------------------------------------------------------------
        External           Internal           Value            Units
          Name               Name
    -------------------------------------------------------------------
       ABCDTYPE             IABCDT         STANDARD    [  0]    ***   
       ANHARMONIC           IANHAR         OFF         [  0]    ***   
       ANH_ALGORIT          IANALG         STANDARD    [  0]    ***   
       ANH_DERIVAT          IANDER         SECOND      [  1]    ***   
       ANH_MODE             ANHMOD         VIBRATION   [  0]    ***   
       ANH_STEPSIZ          ICUBST             50000          x 10-6  
       ANH_SYMMETR          IANHSM         ABELIAN     [  0]    ***   
       AO_LADDERS           IAOLAD         SINGLEPASS  [  1]    ***   
       AV_SCF               IAVSCF         OFF         [  0]    ***   
       BASIS                IBASIS         AUG-PCVQZ   [ 52]    ***   
       BOTHVECTORS          BOTHVC         OFF         [  0]    ***   
       BOX_POTENT           IPIAB          OFF         [  0]    ***   
       BREIT                IBREIT         OFF         [  0]    ***   
       BRUCK_CONV           IBRTOL          10D-  4             ***   
       BRUECKNER            IBRKNR         OFF         [  0]    ***   
       BUFFERSIZE           IBUFFS              4096            ***   
       CACHE_RECS           ICHREC             10               ***   
       CALCLEVEL            ICLLVL         CCSD        [ 10]    ***   
       CCORBOPT             ICCORB         OFF         [  0]  x 0.01  
       CC_CONV              ICCCNV          10D- 14             ***   
       CC_EXPORDER          ICCEOR              5               ***   
       CC_EXTRAPOL          ICCEXT         DIIS        [  1]    ***   
       CC_GUESS             ICCGES         MP2         [  0]    ***   
       CC_MAXCYC            ICCCYC            100              cycles 
       CC_PROGRAM           ICCPRO         VCC         [  0]    ***   
       CHARGE               ICHRGE              0               ***   
       CHOLESKY             ICHOLE         OFF         [  0]    ***   
       CIS_CONV             ICISTL              5               ***   
       COMM_SIZE            IPSIZE            ***               ***   
       CONSTANT             ICONST         OLD         [  1]    ***   
       CONTINUUM            ICONTU         NONE        [  0]    ***   
       CONTRACTION          ICNTYP         GENERAL     [  1]    ***   
       COORDINATES          ICOORD         INTERNAL    [  0]    ***   
       CPHF_CONVER          ICPHFT          10D- 16             ***   
       CPHF_MAXCYC          ICPHFC             64              cycles 
       CUBIC                ICUBIC         OFF         [  0]    ***   
       CURVILINEAR          ICURVY         ON          [  1]    ***   
       DBOC                 IDBOC          ON          [  1]    ***   
       DCT                  IDCT           OFF         [  0]    ***   
       DERIV_LEV            IDRLVL         SECOND      [  2]    ***   
       DEVMEM_SIZE          IDVMEM          50000000           MByte  
       DIAG_MRCC            IEOMST          10D-  0             ***   
       DIFF_TYPE            IDIFTY         RELAXED     [  0]    ***   
       DIRECT               IDIRCT         OFF         [  0]    ***   
       DROPMO               IDRPMO      NONE         
       ECP                  IECP           OFF         [  0]    ***   
       EIGENVECTOR          IVEC                1               ***   
       EL_ANHARM            IELANH         OFF         [  0]    ***   
       EOMFOLLOW            IEOMSR         ENERGY      [  0]    ***   
       EOMIP                IEOMIP         OFF         [  0]    ***   
       EOMLEVEL             HBARFM         SAME        [  0]    ***   
       EOM_MRCC             IMRCCE         NEW         [  1]    ***   
       EOM_NONIT            EOMNON         OFF         [  0]    ***   
       EOM_NSING            IEOMSI          10D-  0             ***   
       EOM_NSTATES          IMRCCD         DAVIDSON    [  0]    ***   
       EOM_NTRIP            IEOMTR          10D-  0             ***   
       EOM_ORDER            IEXORD         ENERGY      [  0]    ***   
       EOM_PROPSTA          IEOMST              0               ***   
       ESTATE_CONV          IEXTOL          10D-  5             ***   
       ESTATE_DIAG          IEXDIG         ITERATIVE   [  0]    ***   
       ESTATE_LOCK          IESLOC         ON          [  1]    ***   
       ESTATE_MAXC          IEXMXC             40               ***   
       ESTATE_PROP          IEXPRP         OFF         [  0]    ***   
       EVAL_HESS            IRECAL              0            # of cyc.
       EXCITATION           IEXCIT              0               ***   
       EXCITE               IEXCIT         NONE        [  0]    ***   
       EXTERN_POT           IEXPOT         OFF         [  0]    ***   
       FCGRADNEW            IFCGNW         OFF         [  0]    ***   
       FC_FIELD             IFINFC              0             x 10-6  
       FD_CALTYPE           IFDCAL         GRADONLY    [  0]    ***   
       FD_PROJECT           IFDPRJ         OFF         [  1]    ***   
       FD_STEPSIZE          IDISFD              0            10-4 bohr
       FD_USEGROUP          IFDGRP         FULL        [  0]    ***   
       FILE_RECSIZ          IFLREC              4096           words  
       FINITE_PERT          IFIPER              0             x 10-6  
       FIXGEOM              IFIXGM         OFF         [  0]    ***   
       FOCK                 IFOCK          AO          [  1]    ***   
       FREQ_ALGORI          IVIALG         STANDARD    [  0]    ***   
       FROZEN_CORE          IFROCO         OFF         [  0]    ***   
       GAMMA_ABCD           IGABCD         STORE       [  0]    ***   
       GAMMA_ABCI           IGABCI         STORE       [  0]    ***   
       GENBAS_1             IGNBS1              0               ***   
       GENBAS_2             IGNBS2              0               ***   
       GENBAS_3             IGNBS3              0               ***   
       GENBAS_4             IGNBS4              0               ***   
       GEO_CONV             ICONTL              5              H/bohr 
       GEO_MAXCYC           IOPTCY             50               ***   
       GEO_MAXSTEP          IMXSTP            300            millibohr
       GEO_METHOD           INR            SINGLE_POINT[  5]    ***   
       GIAO                 IGIAO          OFF         [  1]    ***   
       GIMIC                IGIMIC         OFF         [  0]    ***   
       GRID                 IGRID          OFF         [  0]    ***   
       GRID_ALGO            IGALGO         SERIAL      [  0]    ***   
       GUESS                IGUESS         MOREAD      [  0]    ***   
       HBAR                 IHBAR          OFF         [  0]    ***   
       HESS_TYPE            IHESTP         SCF         [  0]    ***   
       HF2_FILE             IHF2Fl         USE         [  1]    ***   
       HFSTABILITY          ISTABL         OFF         [  0]    ***   
       INCORE               INCORE         OFF         [  0]    ***   
       INPUT_MRCC           IMRCC          ON          [  1]    ***   
       INTEGRALS            INTTYP         VMOL        [  1]    ***   
       JODA_PRINT           IJPRNT              0               ***   
       KEYWORD_OUT          IDMPKW         NO          [  0]    ***   
       LINDEP_TOL           ILINDP              8               ***   
       LINEQ_CONV           IZTACN          10D-  7           cycles  
       LINEQ_EXPOR          ILMAXD              5               ***   
       LINEQ_MAXCY          ILMAXC            100               ***   
       LINEQ_TYPE           ILTYPE         DIIS        [  1]    ***   
       LOCK_ORBOCC          ILOCOC         OFF         [  0]    ***   
       MEMORY_SIZE          IMEMSZ         500000000           words  
       MEM_UNIT             IMEMU          INTEGERWORDS[  0]    ***   
       MRCC                 IMRCCC         OFF         [  0]    ***   
       MULTIPLICTY          IMULTP              1               ***   
       NACOUPLING           IVCOUP         OFF         [  0]    ***   
       NEGEVAL              IDIE           ABORT       [  0]    ***   
       NEWNORM              INEWNO         OFF         [  0]    ***   
       NON-HF               INONHF         OFF         [  0]    ***   
       NTOP_TAMP            ITOPT2             15               ***   
       NUC_MODEL            INUCMO         POINT       [  0]    ***   
       OCCUPATION           IOCCU   ESTIMATED BY SCF 
       OPEN-SHELL           IOPEN          SPIN-ORBITAL[  0]    ***   
       OPTVIB               IOPTVB         OFF         [  0]    ***   
       ORBITALS             IORBTP         STANDARD    [  0]    ***   
       PARALLEL             IPARAL         ON          [  1]    ***   
       PARA_INT             IPINTS         ON          [  1]    ***   
       PARA_PRINT           IPPRIN              0               ***   
       PERT_ORB             IPTORB         STANDARD    [  0]    ***   
       POINTS               IGRDFD              0               ***   
       PRINT                IPRNT               0               ***   
       PROPS                IPROPS         OFF         [  0]    ***   
       PROP_INTEGR          IINTYP         INTERNAL    [  0]    ***   
       PSI                  IPSI           OFF         [  0]    ***   
       QC_ALG               IQCALG         FLM         [  0]    ***   
       QC_LINALG            IQCLIN         TRIDIAG     [  2]    ***   
       QC_MAXCYC            IQCMAX          10D-100           cycles  
       QC_MAXSCFCY          IQCMSC          10D- 15           cycles  
       QC_RTRUST            IQCRTR          10D-  0           x 10-3  
       QC_SKIPSCF           IQCSKI         OFF         [  0]    ***   
       QC_START             IQCSTA          10D-  1             ***   
       QRHFGUESS            IQGUES         OFF         [  0]    ***   
       QUARTIC              IQUART         OFF         [  0]    ***   
       RAMAN_INT            IRAMIN         OFF         [  0]    ***   
       RAMAN_ORB            IRAMRE         UNRELAXED   [  0]    ***   
       RDO                  IRDOFM         ON          [  1]    ***   
       REDUCE_REPR          REDREP         Ir          [  0]    ***   
       REFERENCE            IREFNC         RHF         [  0]    ***   
       RELATIVIST           IRELAT         OFF         [  0]    ***   
       RELAX_DENS           IRDENS         ON          [  1]    ***   
       RESET_FLAGS          IRESET         OFF         [  0]    ***   
       RESTART_CC           ICCRES         OFF         [  0]    ***   
       ROT_EVEC             ROTVEC              0               ***   
       SAVE_INTS            ISVINT         OFF         [  0]    ***   
       SCALE_ON             ISTCRT              0               ***   
       SCF_CONV             ISCFCV          10D- 10             ***   
       SCF_DAMPING          IDAMP               0             x 10-3  
       SCF_EXPORDE          IRPPOR              6               ***   
       SCF_EXPSTAR          IRPPLS              8               ***   
       SCF_EXTRAPO          IRPP           ON          [  1]    ***   
       SCF_MAXCYC           ISCFCY            150              cycles 
       SCF_NOSTOP           ISCFST         OFF         [  0]    ***   
       SCF_PRINT            ISCFPR              0               ***   
       SCF_PROG             ISCFPR         SCF         [  0]    ***   
       SD_FIELD             IFINSD              0             x 10-6  
       SOPERT               IPERSO         OFF         [  0]    ***   
       SPHERICAL            IDFGHI         ON          [  1]    ***   
       SPINORBIT            ISOCAL         OFF         [  0]    ***   
       SPINROTATIO          ISRCON         OFF         [  0]    ***   
       SPIN_FLIP            ISPFLP         OFF         [  0]    ***   
       SPIN_ORBIT           ISPORB         OFF         [  0]    ***   
       SPIN_SCAL            ISCSMP         OFF         [  0]    ***   
       STEEPSCALE           ISTPSC              1000          x 10-3  
       SUBGROUP             ISUBGP         DEFAULT     [  0]    ***   
       SUBGRPAXIS           ISBXYZ         X           [  0]    ***   
       SYMMETRY             ISYM           ON          [  0]    ***   
       SYM_CHECK            ISYMCK         OVERRIDE    [  1]    ***   
       T3_EXTRAPOL          IT3EXT         OFF         [  0]    ***   
       T4_EXTRAPOL          IT4EXP         OFF         [  0]    ***   
       TAMP_SUM             IEVERY              5               ***   
       TESTSUITE            ITESTS         OFF         [  0]    ***   
       THERMOCH             ITHERM         OFF         [  0]    ***   
       TOL_CHOLESK          ITOLCH          10D-  4             ***   
       TRANGRAD             IRESRM         OFF         [  0]    ***   
       TRANS_INV            ITRAIN         IGNORE      [  1]    ***   
       TREAT_PERT           ITREAT         SIMULTANEOUS[  0]    ***   
       TRIP_ALGORI          ITRALG         NORMAL      [  0]    ***   
       UIJ_THRESHO          IUIJTH              1               ***   
       UNITS                IUNITS         ANGSTROM    [  0]    ***   
       UNOS                 IUNOS          OFF         [  0]    ***   
       UPDATE_HESS          IHUPDT         ON          [  1]    ***   
       VIBPHASE             ISETPH         STANDARD    [  0]    ***   
       VIBRATION            IVIB           ANALYTIC    [  1]    ***   
       VIB_ALGORIT          IGEALG         STANDARD    [  0]    ***   
       VNATORB              IVNORB         OFF         [  0]    ***   
       VTRAN                IVTRAN         FULL/PARTIAL[  0]    ***   
       XFIELD               IXEFLD              0             x 10-6  
       XFORM_TOL            IXFTOL          10D- 11             ***   
       YFIELD               IYEFLD              0             x 10-6  
       ZFIELD               IZEFLD            200             x 10-6  
       ZSCALE_EXP           IZEXPS         OFF         [  0]    ***   
    -------------------------------------------------------------------
   2 entries found in Z-matrix 
   Job Title : Carbon Monoxide DBOC calculation                                                
   There are  1 unique internal coordinates.
   Of these,  0 will be optimized.
   User supplied Z-matrix: 
--------------------------------------------------------------------------------
       SYMBOL    BOND      LENGTH    ANGLE     ANGLE     DIHED     ANGLE
                  TO      (ANGST)    WRT      (DEG)      WRT      (DEG)
--------------------------------------------------------------------------------
        C    
        O          1         r    
                  *Initial values for internal coordinates* 
                      Name             Value
                        r               0.9000000000
--------------------------------------------------------------------------------
  read isotopes from ZMAT file 
   Rotational constants (in cm-1): 
          3.0354809469             3.0354809469
   Rotational constants (in MHz): 
      91001.4421775893         91001.4421775893
********************************************************************************
   The full molecular point group is CXv .
   The largest Abelian subgroup of the full molecular point group is C2v .
   The computational point group is C2v .
********************************************************************************
--------------------------------------------------------------------------------
   Analysis of internal coordinates specified by Z-matrix 
--------------------------------------------------------------------------------
   *The nuclear repulsion energy is   28.222778666666663 a.u.
   *There is   1 degree of freedom within the tot. symm. molecular subspace.
   *Z-matrix requests optimization of   0 coordinates.
   *The optimization is constrained.
   *The following   1 parameters can have non-zero 
    derivatives within the totally symmetric subspace:
             r    [ 1]
   *The following   0 parameters are to be optimized:

   *The following coordinates must be varied in an  unconstrained optimization.
             r    [ 1]
--------------------------------------------------------------------------------


 ----------------------------------------------------------------
         Coordinates used in calculation (QCOMP) 
 ----------------------------------------------------------------
 Z-matrix   Atomic            Coordinates (in bohr)
  Symbol    Number           X              Y              Z
 ----------------------------------------------------------------
     C         6        -0.00000000     0.00000000     0.97172695
     O         8         0.00000000     0.00000000    -0.72902692
 ----------------------------------------------------------------
 
   Interatomic distance matrix (Angstroms) 
 
                 C             O    
                [ 1]        [ 2]
  C    [ 1]     0.00000
  O    [ 2]     0.90000     0.00000
 rotcon2
   Rotational constants (in cm-1): 
          3.0354809469             0.0000000000
   Rotational constants (in MHz): 
      91001.4421775893             0.0000000000
  ECPDATA file not present.   Using default ECPDATA. 
  @GTFLGS-I, Hessian will be transformed to curvilinear coordinates.
  There are  218 basis functions.
 @CHECKOUT-I, Total execution time (CPU/WALL):        0.12/       0.15 seconds.
--executable xjoda finished with status     0 in        0.17 seconds (walltime).
 --invoking executable--
/nfs/workspaces/public/cfour_mpi/bin/xvmol
 SERIAL VERSION OF MOLECULE STARTED
********************************************************************************
                    INPUT FROM MOL FILE
********************************************************************************
INTGRL        1    0    1    0    0    0    0    0    0                         
         *** CFOUR Program System (Release V0.1) ***                            
Carbon Monoxide DBOC calculation                                                
    2    2 X  Y       0.10E-08              0    0                              
   9999.00      3.00                                                            
          6.00000000    1    5    1    1    1    1    1                         
C #1  -0.000000000000000   0.000000000000000   0.971726947356420                
   16    9                                                                      
   33980.0000000000       9.100000000000000E-005 -1.900000000000000E-005        
  0.000000000000000E+000  0.000000000000000E+000  0.000000000000000E+000        
  0.000000000000000E+000  0.000000000000000E+000  0.000000000000000E+000        
  0.000000000000000E+000                                                        
   5089.00000000000       7.040000000000000E-004 -1.510000000000000E-004        
  0.000000000000000E+000  0.000000000000000E+000  0.000000000000000E+000        
  0.000000000000000E+000  0.000000000000000E+000  0.000000000000000E+000        
  0.000000000000000E+000                                                        
   1157.00000000000       3.693000000000000E-003 -7.850000000000000E-004        
  0.000000000000000E+000  0.000000000000000E+000  0.000000000000000E+000        
  0.000000000000000E+000  0.000000000000000E+000  0.000000000000000E+000        
  0.000000000000000E+000                                                        
   326.600000000000       1.536000000000000E-002 -3.324000000000000E-003        
  0.000000000000000E+000  0.000000000000000E+000  0.000000000000000E+000        
  0.000000000000000E+000  0.000000000000000E+000  0.000000000000000E+000        
  0.000000000000000E+000                                                        
   106.100000000000       5.292900000000000E-002 -1.151200000000000E-002        
  0.000000000000000E+000  0.000000000000000E+000  0.000000000000000E+000        
  0.000000000000000E+000  0.000000000000000E+000  0.000000000000000E+000        
  0.000000000000000E+000                                                        
   38.1100000000000       0.147043000000000      -3.416000000000000E-002        
  0.000000000000000E+000  0.000000000000000E+000  0.000000000000000E+000        
  0.000000000000000E+000  0.000000000000000E+000  0.000000000000000E+000        
  0.000000000000000E+000                                                        
   14.7500000000000       0.305631000000000      -7.717300000000001E-002        
  0.000000000000000E+000  0.000000000000000E+000  0.000000000000000E+000        
  0.000000000000000E+000  0.000000000000000E+000  0.000000000000000E+000        
  0.000000000000000E+000                                                        
   6.03500000000000       0.399345000000000      -0.141493000000000             
  0.000000000000000E+000  0.000000000000000E+000  0.000000000000000E+000        
  0.000000000000000E+000  0.000000000000000E+000  0.000000000000000E+000        
  0.000000000000000E+000                                                        
   2.53000000000000       0.217051000000000      -0.118019000000000             
  0.000000000000000E+000  0.000000000000000E+000  0.000000000000000E+000        
  0.000000000000000E+000  0.000000000000000E+000  0.000000000000000E+000        
  0.000000000000000E+000                                                        
  0.735500000000000       1.589400000000000E-002  0.273806000000000             
   1.00000000000000       0.000000000000000E+000  0.000000000000000E+000        
  0.000000000000000E+000  0.000000000000000E+000  0.000000000000000E+000        
  0.000000000000000E+000                                                        
  0.290500000000000      -3.084000000000000E-003  0.586510000000000             
  0.000000000000000E+000   1.00000000000000       0.000000000000000E+000        
  0.000000000000000E+000  0.000000000000000E+000  0.000000000000000E+000        
  0.000000000000000E+000                                                        
  0.111100000000000       9.779999999999999E-004  0.285430000000000             
  0.000000000000000E+000  0.000000000000000E+000   1.00000000000000             
  0.000000000000000E+000  0.000000000000000E+000  0.000000000000000E+000        
  0.000000000000000E+000                                                        
   7.21600000000000       0.000000000000000E+000  0.000000000000000E+000        
  0.000000000000000E+000  0.000000000000000E+000  0.000000000000000E+000        
   1.00000000000000       0.000000000000000E+000  0.000000000000000E+000        
  0.000000000000000E+000                                                        
   19.5700000000000       0.000000000000000E+000  0.000000000000000E+000        
  0.000000000000000E+000  0.000000000000000E+000  0.000000000000000E+000        
  0.000000000000000E+000   1.00000000000000       0.000000000000000E+000        
  0.000000000000000E+000                                                        
   53.0730000000000       0.000000000000000E+000  0.000000000000000E+000        
  0.000000000000000E+000  0.000000000000000E+000  0.000000000000000E+000        
  0.000000000000000E+000  0.000000000000000E+000   1.00000000000000             
  0.000000000000000E+000                                                        
  4.145000000000000E-002  0.000000000000000E+000  0.000000000000000E+000        
  0.000000000000000E+000  0.000000000000000E+000  0.000000000000000E+000        
  0.000000000000000E+000  0.000000000000000E+000  0.000000000000000E+000        
   1.00000000000000                                                             
   10    8                                                                      
   34.5100000000000       5.378000000000000E-003  0.000000000000000E+000        
  0.000000000000000E+000  0.000000000000000E+000  0.000000000000000E+000        
  0.000000000000000E+000  0.000000000000000E+000  0.000000000000000E+000        
   7.91500000000000       3.613200000000000E-002  0.000000000000000E+000        
  0.000000000000000E+000  0.000000000000000E+000  0.000000000000000E+000        
  0.000000000000000E+000  0.000000000000000E+000  0.000000000000000E+000        
   2.36800000000000       0.142493000000000       0.000000000000000E+000        
  0.000000000000000E+000  0.000000000000000E+000  0.000000000000000E+000        
  0.000000000000000E+000  0.000000000000000E+000  0.000000000000000E+000        
  0.813200000000000       0.342150000000000        1.00000000000000             
  0.000000000000000E+000  0.000000000000000E+000  0.000000000000000E+000        
  0.000000000000000E+000  0.000000000000000E+000  0.000000000000000E+000        
  0.289000000000000       0.463864000000000       0.000000000000000E+000        
   1.00000000000000       0.000000000000000E+000  0.000000000000000E+000        
  0.000000000000000E+000  0.000000000000000E+000  0.000000000000000E+000        
  0.100700000000000       0.250028000000000       0.000000000000000E+000        
  0.000000000000000E+000   1.00000000000000       0.000000000000000E+000        
  0.000000000000000E+000  0.000000000000000E+000  0.000000000000000E+000        
   8.18200000000000       0.000000000000000E+000  0.000000000000000E+000        
  0.000000000000000E+000  0.000000000000000E+000   1.00000000000000             
  0.000000000000000E+000  0.000000000000000E+000  0.000000000000000E+000        
   24.1860000000000       0.000000000000000E+000  0.000000000000000E+000        
  0.000000000000000E+000  0.000000000000000E+000  0.000000000000000E+000        
   1.00000000000000       0.000000000000000E+000  0.000000000000000E+000        
   71.4940000000000       0.000000000000000E+000  0.000000000000000E+000        
  0.000000000000000E+000  0.000000000000000E+000  0.000000000000000E+000        
  0.000000000000000E+000   1.00000000000000       0.000000000000000E+000        
  3.218000000000000E-002  0.000000000000000E+000  0.000000000000000E+000        
  0.000000000000000E+000  0.000000000000000E+000  0.000000000000000E+000        
  0.000000000000000E+000  0.000000000000000E+000   1.00000000000000             
    6    6                                                                      
   1.84800000000000        1.00000000000000       0.000000000000000E+000        
  0.000000000000000E+000  0.000000000000000E+000  0.000000000000000E+000        
  0.000000000000000E+000                                                        
  0.649000000000000       0.000000000000000E+000   1.00000000000000             
  0.000000000000000E+000  0.000000000000000E+000  0.000000000000000E+000        
  0.000000000000000E+000                                                        
  0.228000000000000       0.000000000000000E+000  0.000000000000000E+000        
   1.00000000000000       0.000000000000000E+000  0.000000000000000E+000        
  0.000000000000000E+000                                                        
   8.65600000000000       0.000000000000000E+000  0.000000000000000E+000        
  0.000000000000000E+000   1.00000000000000       0.000000000000000E+000        
  0.000000000000000E+000                                                        
   33.2130000000000       0.000000000000000E+000  0.000000000000000E+000        
  0.000000000000000E+000  0.000000000000000E+000   1.00000000000000             
  0.000000000000000E+000                                                        
  7.660000000000000E-002  0.000000000000000E+000  0.000000000000000E+000        
  0.000000000000000E+000  0.000000000000000E+000  0.000000000000000E+000        
   1.00000000000000                                                             
    4    4                                                                      
   1.41900000000000        1.00000000000000       0.000000000000000E+000        
  0.000000000000000E+000  0.000000000000000E+000                                
  0.485000000000000       0.000000000000000E+000   1.00000000000000             
  0.000000000000000E+000  0.000000000000000E+000                                
   24.6940000000000       0.000000000000000E+000  0.000000000000000E+000        
   1.00000000000000       0.000000000000000E+000                                
  0.187000000000000       0.000000000000000E+000  0.000000000000000E+000        
  0.000000000000000E+000   1.00000000000000                                     
    2    2                                                                      
   1.01100000000000        1.00000000000000       0.000000000000000E+000        
  0.424000000000000       0.000000000000000E+000   1.00000000000000             
          8.00000000    1    5    1    1    1    1    1                         
O #2   0.000000000000000   0.000000000000000  -0.729026921244470                
   16    9                                                                      
   61420.0000000000       9.000000000000001E-005 -2.000000000000000E-005        
  0.000000000000000E+000  0.000000000000000E+000  0.000000000000000E+000        
  0.000000000000000E+000  0.000000000000000E+000  0.000000000000000E+000        
  0.000000000000000E+000                                                        
   9199.00000000000       6.980000000000001E-004 -1.590000000000000E-004        
  0.000000000000000E+000  0.000000000000000E+000  0.000000000000000E+000        
  0.000000000000000E+000  0.000000000000000E+000  0.000000000000000E+000        
  0.000000000000000E+000                                                        
   2091.00000000000       3.664000000000000E-003 -8.290000000000000E-004        
  0.000000000000000E+000  0.000000000000000E+000  0.000000000000000E+000        
  0.000000000000000E+000  0.000000000000000E+000  0.000000000000000E+000        
  0.000000000000000E+000                                                        
   590.900000000000       1.521800000000000E-002 -3.508000000000000E-003        
  0.000000000000000E+000  0.000000000000000E+000  0.000000000000000E+000        
  0.000000000000000E+000  0.000000000000000E+000  0.000000000000000E+000        
  0.000000000000000E+000                                                        
   192.300000000000       5.242300000000000E-002 -1.215600000000000E-002        
  0.000000000000000E+000  0.000000000000000E+000  0.000000000000000E+000        
  0.000000000000000E+000  0.000000000000000E+000  0.000000000000000E+000        
  0.000000000000000E+000                                                        
   69.3200000000000       0.145921000000000      -3.626100000000000E-002        
  0.000000000000000E+000  0.000000000000000E+000  0.000000000000000E+000        
  0.000000000000000E+000  0.000000000000000E+000  0.000000000000000E+000        
  0.000000000000000E+000                                                        
   26.9700000000000       0.305258000000000      -8.299200000000000E-002        
  0.000000000000000E+000  0.000000000000000E+000  0.000000000000000E+000        
  0.000000000000000E+000  0.000000000000000E+000  0.000000000000000E+000        
  0.000000000000000E+000                                                        
   11.1000000000000       0.398508000000000      -0.152090000000000             
  0.000000000000000E+000  0.000000000000000E+000  0.000000000000000E+000        
  0.000000000000000E+000  0.000000000000000E+000  0.000000000000000E+000        
  0.000000000000000E+000                                                        
   4.68200000000000       0.216980000000000      -0.115331000000000             
  0.000000000000000E+000  0.000000000000000E+000  0.000000000000000E+000        
  0.000000000000000E+000  0.000000000000000E+000  0.000000000000000E+000        
  0.000000000000000E+000                                                        
   1.42800000000000       1.759400000000000E-002  0.288979000000000             
   1.00000000000000       0.000000000000000E+000  0.000000000000000E+000        
  0.000000000000000E+000  0.000000000000000E+000  0.000000000000000E+000        
  0.000000000000000E+000                                                        
  0.554700000000000      -2.502000000000000E-003  0.586128000000000             
  0.000000000000000E+000   1.00000000000000       0.000000000000000E+000        
  0.000000000000000E+000  0.000000000000000E+000  0.000000000000000E+000        
  0.000000000000000E+000                                                        
  0.206700000000000       9.540000000000000E-004  0.277624000000000             
  0.000000000000000E+000  0.000000000000000E+000   1.00000000000000             
  0.000000000000000E+000  0.000000000000000E+000  0.000000000000000E+000        
  0.000000000000000E+000                                                        
   12.9740000000000       0.000000000000000E+000  0.000000000000000E+000        
  0.000000000000000E+000  0.000000000000000E+000  0.000000000000000E+000        
   1.00000000000000       0.000000000000000E+000  0.000000000000000E+000        
  0.000000000000000E+000                                                        
   34.9000000000000       0.000000000000000E+000  0.000000000000000E+000        
  0.000000000000000E+000  0.000000000000000E+000  0.000000000000000E+000        
  0.000000000000000E+000   1.00000000000000       0.000000000000000E+000        
  0.000000000000000E+000                                                        
   93.8810000000000       0.000000000000000E+000  0.000000000000000E+000        
  0.000000000000000E+000  0.000000000000000E+000  0.000000000000000E+000        
  0.000000000000000E+000  0.000000000000000E+000   1.00000000000000             
  0.000000000000000E+000                                                        
  6.959000000000000E-002  0.000000000000000E+000  0.000000000000000E+000        
  0.000000000000000E+000  0.000000000000000E+000  0.000000000000000E+000        
  0.000000000000000E+000  0.000000000000000E+000  0.000000000000000E+000        
   1.00000000000000                                                             
   10    8                                                                      
   63.4200000000000       6.044000000000000E-003  0.000000000000000E+000        
  0.000000000000000E+000  0.000000000000000E+000  0.000000000000000E+000        
  0.000000000000000E+000  0.000000000000000E+000  0.000000000000000E+000        
   14.6600000000000       4.179900000000000E-002  0.000000000000000E+000        
  0.000000000000000E+000  0.000000000000000E+000  0.000000000000000E+000        
  0.000000000000000E+000  0.000000000000000E+000  0.000000000000000E+000        
   4.45900000000000       0.161143000000000       0.000000000000000E+000        
  0.000000000000000E+000  0.000000000000000E+000  0.000000000000000E+000        
  0.000000000000000E+000  0.000000000000000E+000  0.000000000000000E+000        
   1.53100000000000       0.356731000000000        1.00000000000000             
  0.000000000000000E+000  0.000000000000000E+000  0.000000000000000E+000        
  0.000000000000000E+000  0.000000000000000E+000  0.000000000000000E+000        
  0.530200000000000       0.448309000000000       0.000000000000000E+000        
   1.00000000000000       0.000000000000000E+000  0.000000000000000E+000        
  0.000000000000000E+000  0.000000000000000E+000  0.000000000000000E+000        
  0.175000000000000       0.244940000000000       0.000000000000000E+000        
  0.000000000000000E+000   1.00000000000000       0.000000000000000E+000        
  0.000000000000000E+000  0.000000000000000E+000  0.000000000000000E+000        
   14.4750000000000       0.000000000000000E+000  0.000000000000000E+000        
  0.000000000000000E+000  0.000000000000000E+000   1.00000000000000             
  0.000000000000000E+000  0.000000000000000E+000  0.000000000000000E+000        
   42.7300000000000       0.000000000000000E+000  0.000000000000000E+000        
  0.000000000000000E+000  0.000000000000000E+000  0.000000000000000E+000        
   1.00000000000000       0.000000000000000E+000  0.000000000000000E+000        
   126.140000000000       0.000000000000000E+000  0.000000000000000E+000        
  0.000000000000000E+000  0.000000000000000E+000  0.000000000000000E+000        
  0.000000000000000E+000   1.00000000000000       0.000000000000000E+000        
  5.348000000000000E-002  0.000000000000000E+000  0.000000000000000E+000        
  0.000000000000000E+000  0.000000000000000E+000  0.000000000000000E+000        
  0.000000000000000E+000  0.000000000000000E+000   1.00000000000000             
    6    6                                                                      
   3.77500000000000        1.00000000000000       0.000000000000000E+000        
  0.000000000000000E+000  0.000000000000000E+000  0.000000000000000E+000        
  0.000000000000000E+000                                                        
   1.30000000000000       0.000000000000000E+000   1.00000000000000             
  0.000000000000000E+000  0.000000000000000E+000  0.000000000000000E+000        
  0.000000000000000E+000                                                        
  0.444000000000000       0.000000000000000E+000  0.000000000000000E+000        
   1.00000000000000       0.000000000000000E+000  0.000000000000000E+000        
  0.000000000000000E+000                                                        
   14.9270000000000       0.000000000000000E+000  0.000000000000000E+000        
  0.000000000000000E+000   1.00000000000000       0.000000000000000E+000        
  0.000000000000000E+000                                                        
   57.5440000000000       0.000000000000000E+000  0.000000000000000E+000        
  0.000000000000000E+000  0.000000000000000E+000   1.00000000000000             
  0.000000000000000E+000                                                        
  0.154000000000000       0.000000000000000E+000  0.000000000000000E+000        
  0.000000000000000E+000  0.000000000000000E+000  0.000000000000000E+000        
   1.00000000000000                                                             
    4    4                                                                      
   2.66600000000000        1.00000000000000       0.000000000000000E+000        
  0.000000000000000E+000  0.000000000000000E+000                                
  0.859000000000000       0.000000000000000E+000   1.00000000000000             
  0.000000000000000E+000  0.000000000000000E+000                                
   26.4830000000000       0.000000000000000E+000  0.000000000000000E+000        
   1.00000000000000       0.000000000000000E+000                                
  0.324000000000000       0.000000000000000E+000  0.000000000000000E+000        
  0.000000000000000E+000   1.00000000000000                                     
    2    2                                                                      
   1.84600000000000        1.00000000000000       0.000000000000000E+000        
  0.714000000000000       0.000000000000000E+000   1.00000000000000             
FINISH                                                                          
 
********************************************************************************
 ONE- AND TWO-ELECTRON INTEGRALS OVER SYMMETRY-ADAPTED AOS ARE CALCULATED.

  SPHERICAL HARMONICS ARE USED.
  
  INTEGRALS LESS THAN  0.10E-13 ARE NEGLECTED.

  NUCLEAR REPULSION ENERGY :   28.2227786667 A.U.
  @MOLECU-I, ONE ELECTRON INTEGRALS (CPU/WALL):        0.06/       0.06 SECONDS.
  @TWOEL-I,    4727825 INTEGRALS OF SYMMETRY TYPE  I I I I
  @TWOEL-I,   20231268 INTEGRALS OF SYMMETRY TYPE  I J I J
  @TWOEL-I,   10662041 INTEGRALS OF SYMMETRY TYPE  I I J J
  @TWOEL-I,   14932243 INTEGRALS OF SYMMETRY TYPE  I J K L
  @TWOEL-I, TOTAL NUMBER OF 2-E INTEGRALS   50553377.
  @MOLECU-I, TWO ELECTRON INTEGRALS (CPU/WALL):      160.76/      24.39 SECONDS.
 @CHECKOUT-I, Total execution time (CPU/WALL):      160.85/      24.48 seconds.

Running with 14 threads/proc

--executable xvmol finished with status     0 in       24.50 seconds (walltime).
 --invoking executable--
/nfs/workspaces/public/cfour_mpi/bin/xvmol2ja
 @GETMEM-I,  Allocated    3814 MB of main memory.
 @CHECKOUT-I, Total execution time (CPU/WALL):        0.16/       0.03 seconds.
--executable xvmol2ja finished with status     0 in        0.05 seconds (walltime).
 --invoking executable--
/nfs/workspaces/public/cfour_mpi/bin/xvprop
 @GETMEM-I,  Allocated    3814 MB of main memory.
   Property integrals will be calculated.
    --------------------------------------------------------------
                                   Property evaluated at 
    Property type                X             Y             Z
    --------------------------------------------------------------
    Dipole moment               ----          ----          ----  
    Quadrupole moment           ----          ----          ----  
    Octopole moment             ----          ----          ----  
    Relativisitic corr.         ----          ----          ----  
    Second moment            0.0000000     0.0000000     0.0000000
    Electron density         0.0000000     0.0000000     0.9717269
    Electron density         0.0000000     0.0000000    -0.7290269
    Field gradient           0.0000000     0.0000000     0.9717269
    Field gradient           0.0000000     0.0000000    -0.7290269
    Potential                0.0000000     0.0000000     0.9717269
    Potential                0.0000000     0.0000000    -0.7290269
    --------------------------------------------------------------
 @CHECKOUT-I, Total execution time (CPU/WALL):        1.32/       1.33 seconds.
--executable xvprop finished with status     0 in        1.34 seconds (walltime).
 --invoking executable--
/nfs/workspaces/public/cfour_mpi/bin/xvscf
  There are  218 functions in the AO basis.

  There are 4 irreducible representations.

       Irrep        # of functions
         1                 86
         2                 52
         3                 52
         4                 28


  Parameters for SCF calculation: 
        SCF reference function:  RHF  
  Maximum number of iterations:  150
     Full symmetry point group: CXv 
     Computational point group: C2v 
        Initial density matrix: MOREAD                 
     SCF convergence tolerance: 10**(-10)
  DIIS convergence acceleration:  ON
          Latest start for DIIS:   8
                     DIIS order:   6

  Memory information:    2523578 words required.
  Fock matrices are constructed from AO integral file.
 @GETMEM-I,  Allocated      19 MB of main memory.
  Initialization and symmetry analysis required      0.001 seconds.

  Adding electric field perturbation to one-electron Hamiltonian.
  Field direction     : Z
  Field strength      :  0.0002000 a.u.

  @INITGES-I, Occupancies from core Hamiltonian:

          Alpha population by irrep:   5    1    1    0
           Beta population by irrep:   5    1    1    0


 total no. of electrons in initial guess :  0.000000000000000E+000
  --------------------------------------------------------------------
  Iteration         Total Energy            Largest Density Difference
  --------------------------------------------------------------------
       0            28.222779037403825              0.0000000000D+00
   current occupation vector 
     5  1  1  0
     5  1  1  0
       1           -89.260121645165484              0.2118142552D+02
   current occupation vector 
     5  1  1  0
     5  1  1  0
       2           -91.038484041722114              0.1367933594D+03
   current occupation vector 
     5  1  1  0
     5  1  1  0
       3          -104.259438678162724              0.1368169401D+03
   current occupation vector 
     4  1  2  0
     4  1  2  0
       4          -101.968054400042405              0.2152900279D+02
   current occupation vector 
     5  1  1  0
     5  1  1  0
       5          -106.518994300960742              0.2152758784D+02
   current occupation vector 
     4  1  2  0
     4  1  2  0
       6          -103.953811606776071              0.1612846390D+02
   current occupation vector 
     5  1  1  0
     5  1  1  0
       7          -106.891755316071226              0.1612786957D+02
   current occupation vector 
     4  1  2  0
     4  1  2  0
       8          -104.416043333568638              0.1331797112D+02
   current occupation vector 
     5  1  1  0
     5  1  1  0
       9          -111.931217181287337              0.1332510587D+02
   current occupation vector 
     5  1  1  0
     5  1  1  0
      10          -112.513835756568227              0.7541042210D+00
   current occupation vector 
     5  1  1  0
     5  1  1  0
      11          -112.608124170489191              0.2662542481D+00
   current occupation vector 
     5  1  1  0
     5  1  1  0
      12          -112.609374732602362              0.3168767926D-01
   current occupation vector 
     5  1  1  0
     5  1  1  0
      13          -112.609402985068499              0.5617243666D-02
   current occupation vector 
     5  1  1  0
     5  1  1  0
      14          -112.609404667702194              0.1772682018D-02
   current occupation vector 
     5  1  1  0
     5  1  1  0
      15          -112.609404768746430              0.4602583613D-03
   current occupation vector 
     5  1  1  0
     5  1  1  0
      16          -112.609404781362940              0.1540985499D-03
   current occupation vector 
     5  1  1  0
     5  1  1  0
      17          -112.609404782303358              0.5222107208D-04
   current occupation vector 
     5  1  1  0
     5  1  1  0
      18          -112.609404782326408              0.7331853410D-05
   current occupation vector 
     5  1  1  0
     5  1  1  0
      19          -112.609404782326465              0.9059945796D-06
   current occupation vector 
     5  1  1  0
     5  1  1  0
      20          -112.609404782326749              0.1636021152D-06
   current occupation vector 
     5  1  1  0
     5  1  1  0
      21          -112.609404782327431              0.3714996200D-07
   current occupation vector 
     5  1  1  0
     5  1  1  0
      22          -112.609404782326777              0.6287305121D-08
   current occupation vector 
     5  1  1  0
     5  1  1  0
      23          -112.609404782326834              0.1276442729D-08
   current occupation vector 
     5  1  1  0
     5  1  1  0
      24          -112.609404782327061              0.3153093897D-09
   current occupation vector 
     5  1  1  0
     5  1  1  0
      25          -112.609404782325782              0.2036049662D-09
   current occupation vector 
     5  1  1  0
     5  1  1  0

  SCF has converged.

 Density matrix saved to file den.dat
 total electron number:   14.0000000000002     
     E(SCF)=      -112.609404782326408              0.7172440419D-10

  Eigenvector printing suppressed.

 @PUTMOS-I, Writing converged MOs to NEWMOS. 
 @PUTMOS-I, Symmetry   1 Full Blocks 21 Partial Blocksize   2
 @PUTMOS-I, Symmetry   2 Full Blocks 13 Partial Blocksize   0
 @PUTMOS-I, Symmetry   3 Full Blocks 13 Partial Blocksize   0
 @PUTMOS-I, Symmetry   4 Full Blocks  7 Partial Blocksize   0
 @PUTFOCK-I, Writing converged Fock matrix to NEWFOCK. 
 @PUTFOCK-I, Symmetry   1 Full Blocks 21 Partial Blocksize   2
 @PUTFOCK-I, Symmetry   2 Full Blocks 13 Partial Blocksize   0
 @PUTFOCK-I, Symmetry   3 Full Blocks 13 Partial Blocksize   0
 @PUTFOCK-I, Symmetry   4 Full Blocks  7 Partial Blocksize   0


 
  ORBITAL EIGENVALUES (ALPHA)  (1H = 27.2113834 eV)

       MO #        E(hartree)               E(eV)           FULLSYM    COMPSYM
       ----   --------------------   --------------------   -------   ---------
    1     1         -20.6448273182        -561.7743113831     SG+        A1 (1)
    2     2         -11.2592966596        -306.3810382192     SG+        A1 (1)
    3     3          -1.6800458880         -45.7163727888     SG+        A1 (1)
    4     4          -0.8223596870         -22.3775447352     SG+        A1 (1)
    5   139          -0.7620977165         -20.7377331525      PI        B2 (3)
    6    87          -0.7620977165         -20.7377331521      PI        B1 (2)
    7     5          -0.5197830965         -14.1440171249     SG+        A1 (1)
  +++++++++++++++++++++++++++++++++++++++++++++++++++++++++++++++++++++++++++++
    8     6           0.0554050852           1.5076490162     SG+        A1 (1)
    9   140           0.0650441242           1.7699406025      PI        B2 (3)
   10    88           0.0650441242           1.7699406025      PI        B1 (2)
   11     7           0.0783411635           2.1317714350     SG+        A1 (1)
   12    89           0.1539463924           4.1890943061      PI        B1 (2)
   13   141           0.1539463924           4.1890943061      PI        B2 (3)
   14     8           0.1563206596           4.2537014028     SG+        A1 (1)
   15   142           0.2140223820           5.8238450934      PI        B2 (3)
   16    90           0.2140223820           5.8238450935      PI        B1 (2)
   17     9           0.2258808062           6.1465292190     SG+        A1 (1)
   18   191           0.2267561364           6.1703481670      DE        A2 (4)
   19    10           0.2267561364           6.1703481670      DE        A1 (1)
   20    11           0.3027715837           8.2388336455     SG+        A1 (1)
   21   143           0.3518371203           9.5739747748      PI        B2 (3)
   22    91           0.3518371203           9.5739747748      PI        B1 (2)
   23    12           0.4025300582          10.9533997441     SG+        A1 (1)
   24    92           0.4125563146          11.2262280495      PI        B1 (2)
   25   144           0.4125563146          11.2262280496      PI        B2 (3)
   26    13           0.5070639873          13.7979125676     SG+        A1 (1)
   27   192           0.5162509506          14.0479025474      DE        A2 (4)
   28    14           0.5162509506          14.0479025474      DE        A1 (1)
   29   145           0.6178205231          16.8117511273      PI        B2 (3)
   30    93           0.6178205231          16.8117511273      PI        B1 (2)
   31    15           0.6561701445          17.8552973769     SG+        A1 (1)
   32    94           0.7497756030          20.4024313967      PH        B1 (2)
   33   146           0.7497756030          20.4024313967      PH        B2 (3)
   34   193           0.7684881999          20.9116270455      DE        A2 (4)
   35    16           0.7684881999          20.9116270455      DE        A1 (1)
   36    17           0.8021013450          21.8262872252     SG+        A1 (1)
   37   147           0.8536247508          23.2283103725      PI        B2 (3)
   38    95           0.8536247508          23.2283103725      PI        B1 (2)
   39   148           0.8680399092          23.6205667755      PI        B2 (3)
   40    96           0.8680399092          23.6205667756      PI        B1 (2)
   41    18           0.8821761206          24.0052326435     SG+        A1 (1)
   42   194           0.9144114467          24.8824004627      DE        A2 (4)
   43    19           0.9144114467          24.8824004627      DE        A1 (1)
   44    20           0.9705563768          26.4101816815     SG+        A1 (1)
   45   149           1.1438026346          31.1244520236      PI        B2 (3)
   46    97           1.1438026346          31.1244520236      PI        B1 (2)
   47    21           1.3796801374          37.5430051892     SG+        A1 (1)
   48    98           1.4606998278          39.7476630455      PH        B1 (2)
   49   150           1.4606998278          39.7476630455      PH        B2 (3)
   50   195           1.4936041505          40.6430351862      DE        A2 (4)
   51    22           1.4936041505          40.6430351863      DE        A1 (1)
   52    99           1.5197699531          41.3550428736      PI        B1 (2)
   53   151           1.5197699531          41.3550428736      PI        B2 (3)
   54    23           1.5570526614          42.3695569429     SG+        A1 (1)
   55    24           1.6748951366          45.5762137164     SG+        A1 (1)
   56   196           1.7700302912          48.1649728842      DE        A2 (4)
   57    25           1.7700302912          48.1649728843      DE        A1 (1)
   58    26           1.8022136379          49.0407262691     SG+        A1 (1)
   59   152           1.8447083531          50.1970662565      PI        B2 (3)
   60   100           1.8447083531          50.1970662568      PI        B1 (2)
   61   153           2.0512625973          55.8176929904      PI        B2 (3)
   62   101           2.0512625973          55.8176929905      PI        B1 (2)
   63   197           2.1175580949          57.6216851932      PI        A2 (4)
   64    27           2.1175580949          57.6216851932      PI        A1 (1)
   65    28           2.2493968192          61.2091992664     SG+        A1 (1)
   66    29           2.2519118691          61.2776372541      DE        A1 (1)
   67   198           2.2519118691          61.2776372541      DE        A2 (4)
   68   102           2.2657561863          61.6543602776      PH        B1 (2)
   69   154           2.2657561863          61.6543602776      PH        B2 (3)
   70    30           2.3574753599          64.1501658746     SG+        A1 (1)
   71   155           2.3628391982          64.2961233349      PI        B2 (3)
   72   103           2.3628391982          64.2961233350      PI        B1 (2)
   73   199           2.3995265414          65.2944366970      DE        A2 (4)
   74    31           2.3995265414          65.2944366970      DE        A1 (1)
   75   104           2.4534525355          66.7618375979      PH        B1 (2)
   76   156           2.4534525355          66.7618375979      PH        B2 (3)
   77   157           2.6104523114          71.0340186924      PI        B2 (3)
   78   105           2.6104523114          71.0340186926      PI        B1 (2)
   79    32           2.7083341312          73.6975184186     SG+        A1 (1)
   80   158           3.1092643618          84.6073846414      PI        B2 (3)
   81   106           3.1092643618          84.6073846415      PI        B1 (2)
   82   200           3.1798966569          86.5293871040      DE        A2 (4)
   83    33           3.1798966569          86.5293871045      DE        A1 (1)
   84    34           3.2057451961          87.2327616149     SG+        A1 (1)
   85    35           3.3402848159          90.8937707913     SG+        A1 (1)
   86   159           3.7286266564         101.4610895025      PI        B2 (3)
   87   107           3.7286266564         101.4610895030      PI        B1 (2)
   88   201           3.7918061202         103.1802901149      PI        A2 (4)
   89    36           3.7918061202         103.1802901149      PI        A1 (1)
   90    37           4.0149584715         109.2525743018     SG+        A1 (1)
   91   160           4.0550781799         110.3442870702      PH        B2 (3)
   92   108           4.0550781799         110.3442870702      PH        B1 (2)
   93    38           4.1765451178         113.6495704889      DE        A1 (1)
   94   202           4.1765451178         113.6495704889      DE        A2 (4)
   95   109           4.2271883231         115.0276421645      PI        B1 (2)
   96   161           4.2271883231         115.0276421646      PI        B2 (3)
   97    39           4.3710699436         118.9428601047     SG+        A1 (1)
   98   203           4.4925942371         122.2497042462      DE        A2 (4)
   99    40           4.4925942371         122.2497042463      DE        A1 (1)
  100   110           4.5689217776         124.3266822159      PH        B1 (2)
  101   162           4.5689217776         124.3266822159      PH        B2 (3)
  102    41           4.7611619969         129.5578045268     SG+        A1 (1)
  103   163           4.9767091322         135.4231402678      PI        B2 (3)
  104   111           4.9767091323         135.4231402681      PI        B1 (2)
  105   204           5.2112856710         141.8062924010      DE        A2 (4)
  106    42           5.2112856710         141.8062924013      DE        A1 (1)
  107    43           5.2503546238         142.8694126543     SG+        A1 (1)
  108   164           5.3744653252         146.2466365329      PI        B2 (3)
  109   112           5.3744653252         146.2466365330      PI        B1 (2)
  110   205           5.9376340776         161.5712373753      PI        A2 (4)
  111    44           5.9376340776         161.5712373753      PI        A1 (1)
  112   165           6.0493484309         164.6111394744      PI        B2 (3)
  113   113           6.0493484310         164.6111394749      PI        B1 (2)
  114    45           6.1356534410         166.9596181918     SG+        A1 (1)
  115   114           6.3238002428         172.0793529531      PH        B1 (2)
  116   166           6.3238002428         172.0793529531      PH        B2 (3)
  117    46           6.3635695655         173.1615312402     SG+        A1 (1)
  118   206           6.3653301155         173.2094382397      DE        A2 (4)
  119    47           6.3653301155         173.2094382397      DE        A1 (1)
  120   167           6.4642231234         175.9004537941      PI        B2 (3)
  121   115           6.4642231234         175.9004537944      PI        B1 (2)
  122   116           6.6190981264         180.1148168804      PH        B1 (2)
  123   168           6.6190981264         180.1148168804      PH        B2 (3)
  124   207           6.8310910847         185.8834385467      DE        A2 (4)
  125    48           6.8310910847         185.8834385470      DE        A1 (1)
  126    49           7.2122318070         196.2548048709     SG+        A1 (1)
  127   169           8.0827949289         219.9440317539      PI        B2 (3)
  128   117           8.0827949289         219.9440317541      PI        B1 (2)
  129   208           8.3491037945         227.1906643993      DE        A2 (4)
  130    50           8.3491037945         227.1906643998      DE        A1 (1)
  131    51           8.7650867913         238.5101372126     SG+        A1 (1)
  132    52           8.9946780767         244.7576337040     SG+        A1 (1)
  133   170           9.0725130940         246.8756322032      PI        B2 (3)
  134   118           9.0725130941         246.8756322040      PI        B1 (2)
  135    53          10.0233023925         272.7479243378     SG+        A1 (1)
  136   119          10.2804923868         279.7464198768      PI        B1 (2)
  137   171          10.2804923868         279.7464198768      PI        B2 (3)
  138   209          10.6147321474         288.8415461522      PI        A2 (4)
  139    54          10.6147321474         288.8415461522      PI        A1 (1)
  140   120          11.1163410482         302.4910182679      PH        B1 (2)
  141   172          11.1163410482         302.4910182679      PH        B2 (3)
  142    55          11.4045837866         310.3345019360      DE        A1 (1)
  143   210          11.4045837867         310.3345019360      DE        A2 (4)
  144    56          11.4354898011         311.1754973444     SG+        A1 (1)
  145   121          11.5169795321         313.3929456573      PI        B1 (2)
  146   173          11.5169795321         313.3929456574      PI        B2 (3)
  147   174          11.8935281134         323.6393534717      PH        B2 (3)
  148   122          11.8935281134         323.6393534717      PH        B1 (2)
  149    57          12.5333259784         341.0491384746      DE        A1 (1)
  150   211          12.5333259784         341.0491384755      DE        A2 (4)
  151    58          13.2267329594         359.9177016886     SG+        A1 (1)
  152   212          13.3304580609         362.7402051917      DE        A2 (4)
  153    59          13.3304580609         362.7402051917      DE        A1 (1)
  154   123          13.5044277629         367.4741614528      PI        B1 (2)
  155   175          13.5044277629         367.4741614528      PI        B2 (3)
  156    60          14.2281503878         387.1676552746     SG+        A1 (1)
  157   176          15.4555182546         420.5660328714      PI        B2 (3)
  158   124          15.4555182546         420.5660328715      PI        B1 (2)
  159    61          15.7412579590         428.3414055194     SG+        A1 (1)
  160    62          19.1782907120         521.8678215210     SG+        A1 (1)
  161   177          19.7760323279         538.1331978054      PI        B2 (3)
  162   125          19.7760323279         538.1331978062      PI        B1 (2)
  163    63          22.1150471231         601.7810261762     SG+        A1 (1)
  164   213          26.8407726141         730.3745543537      DE        A2 (4)
  165    64          26.8407726141         730.3745543538      DE        A1 (1)
  166   178          28.1226522684         765.2562731005      PI        B2 (3)
  167   126          28.1226522684         765.2562731007      PI        B1 (2)
  168    65          29.4413763956         801.1405809238     SG+        A1 (1)
  169   179          34.1483690552         929.2243628469      PI        B2 (3)
  170   127          34.1483690552         929.2243628470      PI        B1 (2)
  171    66          36.5244050778         993.8795900279     SG+        A1 (1)
  172    67          37.6083438552        1023.3750636823     SG+        A1 (1)
  173    68          47.2831077500        1286.6387733295      DE        A1 (1)
  174   214          47.2831077500        1286.6387733295      DE        A2 (4)
  175   128          48.2733769670        1313.5853686605      PI        B1 (2)
  176   180          48.2733769670        1313.5853686606      PI        B2 (3)
  177    69          48.9347595484        1331.5825036571     SG+        A1 (1)
  178    70          65.2561868431        1775.7111194107     SG+        A1 (1)
  179   181          67.1978686138        1828.5469665126      PI        B2 (3)
  180   129          67.1978686138        1828.5469665131      PI        B1 (2)
  181    71          69.0131017769        1877.9419720743     SG+        A1 (1)
  182   130          98.7990372338        2688.4584817194      PH        B1 (2)
  183   182          98.7990372338        2688.4584817195      PH        B2 (3)
  184   215          98.8594441455        2690.1022373547      DE        A2 (4)
  185    72          98.8594441455        2690.1022373547      DE        A1 (1)
  186   183          98.9035142349        2691.3014454527      PI        B2 (3)
  187   131          98.9035142349        2691.3014454527      PI        B1 (2)
  188    73          98.9769529301        2693.2998139447     SG+        A1 (1)
  189   132         103.3119941530        2811.2622827166      PH        B1 (2)
  190   184         103.3119941530        2811.2622827166      PH        B2 (3)
  191   216         103.3869753994        2813.3026261596      DE        A2 (4)
  192    74         103.3869753995        2813.3026261620      DE        A1 (1)
  193   133         103.5150792976        2816.7885104482      PI        B1 (2)
  194   185         103.5150792976        2816.7885104483      PI        B2 (3)
  195    75         103.6446254224        2820.3136397185     SG+        A1 (1)
  196    76         115.4138496129        3140.5705114854      DE        A1 (1)
  197   217         115.4138496129        3140.5705114854      DE        A2 (4)
  198   186         116.0500649617        3157.8828112671      PI        B2 (3)
  199   134         116.0500649617        3157.8828112672      PI        B1 (2)
  200    77         116.6301978235        3173.6690289919     SG+        A1 (1)
  201   187         117.3574667573        3193.4590227865      PI        B2 (3)
  202   135         117.3574667573        3193.4590227867      PI        B1 (2)
  203    78         119.3136677088        3246.6899568832     SG+        A1 (1)
  204    79         123.6752349785        3365.3742360843     SG+        A1 (1)
  205   218         198.6923431578        5406.6935283106      DE        A2 (4)
  206    80         198.6923431578        5406.6935283107      DE        A1 (1)
  207   188         199.2434966942        5421.6911785013      PI        B2 (3)
  208   136         199.2434966942        5421.6911785015      PI        B1 (2)
  209    81         199.6017217690        5431.4389783555     SG+        A1 (1)
  210    82         217.6950068486        5923.7822956234     SG+        A1 (1)
  211   189         225.5827149754        6138.4177456083      PI        B2 (3)
  212   137         225.5827149754        6138.4177456085      PI        B1 (2)
  213    83         227.0109269759        6177.2813699306     SG+        A1 (1)
  214   190         395.7391810053       10768.6105807361      PI        B2 (3)
  215   138         395.7391810053       10768.6105807368      PI        B1 (2)
  216    84         397.2332197127       10809.2654408182     SG+        A1 (1)
  217    85         510.0893938813       13880.2380651769     SG+        A1 (1)
  218    86         896.6334362794       24398.6362038586     SG+        A1 (1)


  VSCF finished.

 @CHECKOUT-I, Total execution time (CPU/WALL):       43.46/       7.89 seconds.
--executable xvscf finished with status     0 in        7.91 seconds (walltime).
 --invoking executable--
/nfs/workspaces/public/cfour_mpi/bin/xvtran
 @GETMEM-I,  Allocated    3814 MB of main memory.
  Full RHF integral transformation
  Transformation of IIII integrals :
  1 pass through the AO integral file was required.
     4727825 AO integrals were read.
     8955685 MO integrals were written to HF2.
  Transformation of IIJJ integrals :
  1 pass through the AO integral file was required.
    10662041 AO integrals were read.
    14813369 MO integrals were written to HF2.
  Transformation of IJIJ integrals :
  1 pass through the AO integral file was required.
    20231268 AO integrals were read.
    28503790 MO integrals were written to HF2.
  Transformation of IJKL integrals :
  1 pass through the AO integral file was required.
    14932243 AO integrals were read.
    19381505 MO integrals were written to HF2.
  Summary of active molecular orbitals: 
------------------------------------------------------------------------
 
  Index      Eigenvalue    Symmetry    Index      Eigenvalue    Symmetry
------------------------------------------------------------------------
     1       -20.6448273        1       110         4.2271883        2
     2       -11.2592967        1       111         4.5689218        2
     3        -1.6800459        1       112         4.9767091        2
     4        -0.8223597        1       113         5.3744653        2
     5        -0.5197831        1       114         6.0493484        2
     6        -0.7620977        2       115         6.3238002        2
     7        -0.7620977        3       116         6.4642231        2
     8         0.0554051        1       117         6.6190981        2
     9         0.0783412        1       118         8.0827949        2
    10         0.1563207        1       119         9.0725131        2
    11         0.2258808        1       120        10.2804924        2
    12         0.2267561        1       121        11.1163410        2
    13         0.3027716        1       122        11.5169795        2
    14         0.4025301        1       123        11.8935281        2
    15         0.5070640        1       124        13.5044278        2
    16         0.5162510        1       125        15.4555183        2
    17         0.6561701        1       126        19.7760323        2
    18         0.7684882        1       127        28.1226523        2
    19         0.8021013        1       128        34.1483691        2
    20         0.8821761        1       129        48.2733770        2
    21         0.9144114        1       130        67.1978686        2
    22         0.9705564        1       131        98.7990372        2
    23         1.3796801        1       132        98.9035142        2
    24         1.4936042        1       133       103.3119942        2
    25         1.5570527        1       134       103.5150793        2
    26         1.6748951        1       135       116.0500650        2
    27         1.7700303        1       136       117.3574668        2
    28         1.8022136        1       137       199.2434967        2
    29         2.1175581        1       138       225.5827150        2
    30         2.2493968        1       139       395.7391810        2
    31         2.2519119        1       140         0.0650441        3
    32         2.3574754        1       141         0.1539464        3
    33         2.3995265        1       142         0.2140224        3
    34         2.7083341        1       143         0.3518371        3
    35         3.1798967        1       144         0.4125563        3
    36         3.2057452        1       145         0.6178205        3
    37         3.3402848        1       146         0.7497756        3
    38         3.7918061        1       147         0.8536248        3
    39         4.0149585        1       148         0.8680399        3
    40         4.1765451        1       149         1.1438026        3
    41         4.3710699        1       150         1.4606998        3
    42         4.4925942        1       151         1.5197700        3
    43         4.7611620        1       152         1.8447084        3
    44         5.2112857        1       153         2.0512626        3
    45         5.2503546        1       154         2.2657562        3
    46         5.9376341        1       155         2.3628392        3
    47         6.1356534        1       156         2.4534525        3
    48         6.3635696        1       157         2.6104523        3
    49         6.3653301        1       158         3.1092644        3
    50         6.8310911        1       159         3.7286267        3
    51         7.2122318        1       160         4.0550782        3
    52         8.3491038        1       161         4.2271883        3
    53         8.7650868        1       162         4.5689218        3
    54         8.9946781        1       163         4.9767091        3
    55        10.0233024        1       164         5.3744653        3
    56        10.6147321        1       165         6.0493484        3
    57        11.4045838        1       166         6.3238002        3
    58        11.4354898        1       167         6.4642231        3
    59        12.5333260        1       168         6.6190981        3
    60        13.2267330        1       169         8.0827949        3
    61        13.3304581        1       170         9.0725131        3
    62        14.2281504        1       171        10.2804924        3
    63        15.7412580        1       172        11.1163410        3
    64        19.1782907        1       173        11.5169795        3
    65        22.1150471        1       174        11.8935281        3
    66        26.8407726        1       175        13.5044278        3
    67        29.4413764        1       176        15.4555183        3
    68        36.5244051        1       177        19.7760323        3
    69        37.6083439        1       178        28.1226523        3
    70        47.2831078        1       179        34.1483691        3
    71        48.9347595        1       180        48.2733770        3
    72        65.2561868        1       181        67.1978686        3
    73        69.0131018        1       182        98.7990372        3
    74        98.8594441        1       183        98.9035142        3
    75        98.9769529        1       184       103.3119942        3
    76       103.3869754        1       185       103.5150793        3
    77       103.6446254        1       186       116.0500650        3
    78       115.4138496        1       187       117.3574668        3
    79       116.6301978        1       188       199.2434967        3
    80       119.3136677        1       189       225.5827150        3
    81       123.6752350        1       190       395.7391810        3
    82       198.6923432        1       191         0.2267561        4
    83       199.6017218        1       192         0.5162510        4
    84       217.6950068        1       193         0.7684882        4
    85       227.0109270        1       194         0.9144114        4
    86       397.2332197        1       195         1.4936042        4
    87       510.0893939        1       196         1.7700303        4
    88       896.6334363        1       197         2.1175581        4
    89         0.0650441        2       198         2.2519119        4
    90         0.1539464        2       199         2.3995265        4
    91         0.2140224        2       200         3.1798967        4
    92         0.3518371        2       201         3.7918061        4
    93         0.4125563        2       202         4.1765451        4
    94         0.6178205        2       203         4.4925942        4
    95         0.7497756        2       204         5.2112857        4
    96         0.8536248        2       205         5.9376341        4
    97         0.8680399        2       206         6.3653301        4
    98         1.1438026        2       207         6.8310911        4
    99         1.4606998        2       208         8.3491038        4
   100         1.5197700        2       209        10.6147321        4
   101         1.8447084        2       210        11.4045838        4
   102         2.0512626        2       211        12.5333260        4
   103         2.2657562        2       212        13.3304581        4
   104         2.3628392        2       213        26.8407726        4
   105         2.4534525        2       214        47.2831078        4
   106         2.6104523        2       215        98.8594441        4
   107         3.1092644        2       216       103.3869754        4
   108         3.7286267        2       217       115.4138496        4
   109         4.0550782        2       218       198.6923432        4
------------------------------------------------------------------------
  -20.6448273182271       -11.2592966596186       -1.68004588802987     
 -0.822359686984361      -0.519783096545404      -0.762097716505856     
 -0.762097716519880       5.540508521710270E-002  7.834116346146072E-002
  0.156320659640445       0.225880806154999       0.226756136440263     
  0.302771583656641       0.402530058213799       0.507063987330394     
  0.516250950602145       0.656170144471621       0.768488199885404     
  0.802101345026438       0.882176120582088       0.914411446744883     
  0.970556376841098        1.37968013743658        1.49360415046974     
   1.55705266138493        1.67489513658595        1.77003029122936     
   1.80221363788242        2.11755809494109        2.24939681921524     
   2.25191186913806        2.35747535991228        2.39952654141788     
   2.70833413117173        3.17989665694297        3.20574519613960     
   3.34028481592329        3.79180612018815        4.01495847145222     
   4.17654511783684        4.37106994364516        4.49259423709827     
   4.76116199688590        5.21128567102864        5.25035462380580     
   5.93763407763188        6.13565344097308        6.36356956552950     
   6.36533011547399        6.83109108473342        7.21223180703558     
   8.34910379454633        8.76508679130809        8.99467807667560     
   10.0233023925495        10.6147321474382        11.4045837866500     
   11.4354898010971        12.5333259783715        13.2267329594354     
   13.3304580608609        14.2281503877755        15.7412579589539     
   19.1782907120024        22.1150471231162        26.8407726140747     
   29.4413763955803        36.5244050777614        37.6083438551784     
   47.2831077500267        48.9347595483550        65.2561868431399     
   69.0131017768963        98.8594441455243        98.9769529301014     
[...]
 Convergence information after     5 iterations: 
 Largest element of residual vector : -0.10297651E-02.
 Largest element of DIIS residual   : -0.45489569E-03.
 Convergence information after     6 iterations: 
 Largest element of residual vector : -0.30951085E-03.
 Largest element of DIIS residual   : -0.81471332E-04.
 Convergence information after     7 iterations: 
 Largest element of residual vector : -0.54215032E-04.
 Largest element of DIIS residual   : -0.25027026E-04.
 Convergence information after     8 iterations: 
 Largest element of residual vector : -0.15283382E-04.
 Largest element of DIIS residual   :  0.82233251E-05.
 Convergence information after     9 iterations: 
 Largest element of residual vector :  0.42968960E-05.
 Largest element of DIIS residual   :  0.19467814E-05.
 Convergence information after    10 iterations: 
 Largest element of residual vector :  0.15380099E-05.
 Largest element of DIIS residual   :  0.80552372E-06.
 Convergence information after    11 iterations: 
 Largest element of residual vector :  0.41965153E-06.
 Largest element of DIIS residual   :  0.23179750E-06.
 Convergence information after    12 iterations: 
 Largest element of residual vector :  0.16133294E-06.
 Largest element of DIIS residual   :  0.10243671E-06.
 Convergence information after    13 iterations: 
 Largest element of residual vector :  0.63631624E-07.
 Largest element of DIIS residual   :  0.42439774E-07.
 Perturbed amplitude equations converged in    13 iterations.
  Dominant contributions to perturbed wavefunction:
    7    7  142   37   0.2328777694 ABAB
    7    7   37  142   0.2328777694 ABAB
    5    5  142   53   0.2182260085 ABAB
    5    5   53  142   0.2182260085 ABAB
    7    7  142   53   0.1980186297 ABAB
    7    7   53  142   0.1980186297 ABAB
    7    7  142   48   0.1952759078 ABAB
    7    7   48  142   0.1952759078 ABAB
    5    5  142   43   0.1937274331 ABAB
    5    5   43  142   0.1937274331 ABAB
    7    7  144   53   0.1798354895 ABAB
    7    7   53  144   0.1798354895 ABAB
    7    7  142   63   0.1797152275 ABAB
    7    7   63  142   0.1797152275 ABAB
    5    5  142   37   0.1673234410 ABAB
    5    5   37  142   0.1673234410 ABAB
    7    6   37   91   0.1617318690 ABAB
    6    7   91   37   0.1617318690 ABAB
    7    7  145   37   0.1596077130 ABAB
    7    7   37  145   0.1596077130 ABAB
  norm of converged amps    3.11662956050395     
 Starting iterative solution of the perturbed Lambda equations.
 The DIIS procedure is used to accelerate convergence.
 Convergence criterion is 10**(-7).
 Maximum number of iterations is 100.
 Convergence information after     1 iterations: 
 Largest element of residual vector : -0.60086713E-01.
 Largest element of DIIS residual   : -0.60086713E-01.
 Convergence information after     2 iterations: 
 Largest element of residual vector :  0.52893907E-02.
 Largest element of DIIS residual   :  0.66732857E-02.
 Convergence information after     3 iterations: 
 Largest element of residual vector : -0.31722648E-02.
 Largest element of DIIS residual   : -0.28067026E-02.
 Convergence information after     4 iterations: 
 Largest element of residual vector : -0.19324251E-02.
 Largest element of DIIS residual   : -0.14217978E-02.
 Convergence information after     5 iterations: 
 Largest element of residual vector : -0.96581432E-03.
 Largest element of DIIS residual   : -0.42405462E-03.
 Convergence information after     6 iterations: 
 Largest element of residual vector : -0.28934347E-03.
 Largest element of DIIS residual   : -0.73908165E-04.
 Convergence information after     7 iterations: 
 Largest element of residual vector : -0.49119186E-04.
 Largest element of DIIS residual   : -0.21126526E-04.
 Convergence information after     8 iterations: 
 Largest element of residual vector : -0.12741636E-04.
 Largest element of DIIS residual   :  0.73681813E-05.
 Convergence information after     9 iterations: 
 Largest element of residual vector :  0.39101386E-05.
 Largest element of DIIS residual   :  0.17308239E-05.
 Convergence information after    10 iterations: 
 Largest element of residual vector :  0.13744410E-05.
 Largest element of DIIS residual   :  0.74320859E-06.
 Convergence information after    11 iterations: 
 Largest element of residual vector :  0.39746034E-06.
 Largest element of DIIS residual   :  0.22508432E-06.
 Convergence information after    12 iterations: 
 Largest element of residual vector :  0.15429943E-06.
 Largest element of DIIS residual   :  0.96294356E-07.
 Perturbed Lambda equations converged in    12 iterations.
  Dominant contributions to perturbed wavefunction:
    7    7  142   37   0.2248428784 ABAB
    7    7   37  142   0.2248428784 ABAB
    5    5  142   53   0.2096964326 ABAB
    5    5   53  142   0.2096964326 ABAB
    7    7  142   53   0.1903778387 ABAB
    7    7   53  142   0.1903778387 ABAB
    7    7  142   48   0.1886790507 ABAB
    7    7   48  142   0.1886790507 ABAB
    5    5  142   43   0.1863583489 ABAB
    5    5   43  142   0.1863583489 ABAB
    7    7  142   63   0.1733438919 ABAB
    7    7   63  142   0.1733438919 ABAB
    7    7  144   53   0.1731216668 ABAB
    7    7   53  144   0.1731216668 ABAB
    5    5  142   37   0.1604394575 ABAB
    5    5   37  142   0.1604394575 ABAB
    7    6   37   91   0.1547029770 ABAB
    6    7   91   37   0.1547029770 ABAB
    7    7  145   37   0.1546825886 ABAB
    7    7   37  145   0.1546825886 ABAB
        The DBOC first-order density matrix is being calculated 
             (Symmetry block 3, perturbation   2)
 term   11.7209385148727     
 final tnorm  0.912503336387510     
  norm contr. I: |<0|L dT/dx|0>|^2   0.000000000000000E+000
  norm contr. II: <0|[nabla(1+L)e-T][nabla e^T]|0>   11.7209385148727     
  total norm contribution   11.7209385148727     
 oo  1.320749783496124E-002
 vv  -88.0619382032531     
 vo  1.007168138239981E-002
  Correlated perturbed 1-el contribution to DBOC  -88.0386590240358       cm**-1
  SUM_I |dc_I/dx|^2 contribution to DBOC   44.1259298348500       cm**-1
 
 
  The total diagonal Born-Oppenheimer correction (DBOC) is:      0.0041745220 a.u.
  The total diagonal Born-Oppenheimer correction (DBOC) is:        916.201687 cm-1
 
 Total CC energy including DBOC  -113.081487906328     
 First-order density matrix is being calculated  (Symmetry block 3, perturbation   2)
 Calculation of the contributions of <pq||rs> to dI(i,j)/dx required   1.6 seconds.
 Calculation of the contributions of <pq||rs> to dI(a,b)/dx required  14.7 seconds.
 Calculation of the contributions of <pq||rs> to dI(i,a)/dx required   9.3 seconds.
 First-order Z-vector equations are solved for 1 perturbation.
 Convergence reached after  17 iterations.
        U*G(pq,rs) contribution is being calculated
             (Symmetry block 3, perturbation   2)

 CCSD contribution to force constants 

        0.0000000000        0.0000000000        0.0000000000
        0.0000000000        0.0000000000        0.0000000000
        0.0000000000        0.0000000000        0.0000000000
        0.0000000000        0.0000000000        0.0000000000
        0.0000000000        0.0000000000        0.0000000000
        0.0000000000        0.0000000000        0.0000000000
        0.0000000000        0.0000000000        0.0000000000
        0.0000000000        0.0000000000        0.0000000000
        0.0000000000        0.0000000000        0.0000000000
        0.0000000000        0.0000000000        0.0000000000
        0.0000000000        0.0000000000        0.0000000000
        0.0000000000      -19.9558399917       19.9558399917

 CCSD contribution to dipole derivatives 

        0.0000000000        0.0000000000        0.0000000000
        0.0000000000        0.0000000000        0.0000000000
        0.0000000000        0.0000000000        0.0000000000
        0.0000000000        0.0000000000       -0.0351707568
        0.0000000000        0.0000000000        0.0000000000
        0.0000000000        0.0000000000        0.0000000000
 @CHECKOUT-I, Total execution time (CPU/WALL):     1020.84/     260.31 seconds.
--executable xsdcc finished with status     0 in      260.33 seconds (walltime).
 --invoking executable--
/nfs/workspaces/public/cfour_mpi/bin/xanti
 @GETMEM-I,  Allocated    3814 MB of main memory.
 CCSD MO derivative gammas will be sorted to Mulliken order.
 @CHECKOUT-I, Total execution time (CPU/WALL):        9.06/      14.46 seconds.
--executable xanti finished with status     0 in       14.50 seconds (walltime).
 --invoking executable--
/nfs/workspaces/public/cfour_mpi/bin/xbcktrn
 @GETMEM-I,  Allocated    3814 MB of main memory.
 CCSD MO derivative gammas will be transformed to the AO basis.
 @CHECKOUT-I, Total execution time (CPU/WALL):       25.65/       4.74 seconds.
--executable xbcktrn finished with status     0 in        4.76 seconds (walltime).
 --invoking executable--
/nfs/workspaces/public/cfour_mpi/bin/xvdint
 @GETMEM-I,  Allocated    3814 MB of main memory.
 One- and two-electron integral derivatives are calculated
 for RHF-CC/MBPT hessians and dipole derivatives.
 Spherical gaussians are used.
  magnet F F
                    8722  records have been written to the Sort file.
  Total length of Sort file :             178609116  words.
 Evaluation of 2el integral derivatives

                      Two-electron integral gradient
                      ------------------------------

                         C #1 z     0.0000000000
                         O #2 z     0.0000000000


 C #1       0.0000000000           -2.5293595493            0.0000000000
 O #2       0.0000000000            2.5293595493            0.0000000000


 Evaluation of 2e integral derivatives required  354.20 seconds.
  contribution to Hessian
        0.0000000000        0.0000000000        0.0000000000
        0.0000000000       -2.5293595493        2.5293595493
 @CHECKOUT-I, Total execution time (CPU/WALL):      354.19/      77.72 seconds.
--executable xvdint finished with status     0 in       77.74 seconds (walltime).
 --invoking executable--
/nfs/workspaces/public/cfour_mpi/bin/xanti
 @GETMEM-I,  Allocated    3814 MB of main memory.
 CCSD MO gammas will be sorted to Mulliken order.
 @CHECKOUT-I, Total execution time (CPU/WALL):       11.15/       9.69 seconds.
--executable xanti finished with status     0 in        9.71 seconds (walltime).
 --invoking executable--
/nfs/workspaces/public/cfour_mpi/bin/xbcktrn
 @GETMEM-I,  Allocated    3814 MB of main memory.
 CCSD MO gammas will be transformed to the AO basis.
 @CHECKOUT-I, Total execution time (CPU/WALL):       29.69/       5.27 seconds.
--executable xbcktrn finished with status     0 in        5.29 seconds (walltime).
 --invoking executable--
/nfs/workspaces/public/cfour_mpi/bin/xvdint
 @GETMEM-I,  Allocated    3814 MB of main memory.
 One- and two-electron integral derivatives are calculated
 for RHF-CC/MBPT hessians and dipole derivatives.
 Spherical gaussians are used.
  magnet F F

                     Kinetic energy integral gradient
                     --------------------------------

                         C #1 z    -2.0501428124
                         O #2 z     2.0501428124


 C #1       0.0000000000            0.0000000000           -2.0501428124
 O #2       0.0000000000            0.0000000000            2.0501428124



                   Nuclear attraction integral gradient
                   ------------------------------------

                         C #1 z    28.9517562810
                         O #2 z   -28.9517562810


 C #1       0.0000000000            0.0000000000           28.9517562810
 O #2       0.0000000000            0.0000000000          -28.9517562810



                      Reorthonormalization gradient
                      -----------------------------

                         C #1 z     0.0000000000
                         O #2 z     0.0000000000


 C #1       0.0000000000            0.0000000000            0.0000000000
 O #2       0.0000000000            0.0000000000            0.0000000000



                     Kinetic energy integral Hessian
                     -------------------------------


           Symmetry 1

           C #1 z      O #2 z

 C #1 z   -0.142175
 O #2 z    0.142175   -0.142175


           Symmetry 2

           C #1 x      O #2 x

 C #1 x   -4.455444
 O #2 x    4.455444   -4.455444


           Symmetry 3

           C #1 y      O #2 y

 C #1 y   -4.455444
 O #2 y    4.455444   -4.455444




           C #1 x      C #1 y      C #1 z      O #2 x      O #2 y      O #2 z

 C #1 x   -4.455444
 C #1 y    0.000000   -4.455444
 C #1 z    0.000000    0.000000   -0.142175

 O #2 x    4.455444    0.000000    0.000000   -4.455444
 O #2 y    0.000000    4.455444    0.000000    0.000000   -4.455444
 O #2 z    0.000000    0.000000    0.142175    0.000000    0.000000   -0.142175




                   Nuclear attraction integral Hessian
                   -----------------------------------


           Symmetry 1

           C #1 z      O #2 z

 C #1 z  -10.918410
 O #2 z   10.918410  -10.918410


           Symmetry 2

           C #1 x      O #2 x

 C #1 x   37.487939
 O #2 x  -37.487939   37.487939


           Symmetry 3

           C #1 y      O #2 y

 C #1 y   37.487939
 O #2 y  -37.487939   37.487939




           C #1 x      C #1 y      C #1 z      O #2 x      O #2 y      O #2 z

 C #1 x   37.487939
 C #1 y    0.000000   37.487939
 C #1 z    0.000000    0.000000  -10.918410

 O #2 x  -37.487939    0.000000    0.000000   37.487939
 O #2 y    0.000000  -37.487939    0.000000    0.000000   37.487939
 O #2 z    0.000000    0.000000   10.918410    0.000000    0.000000  -10.918410




                Highest order reorthonormalization Hessian
                ------------------------------------------


           Symmetry 1

           C #1 z      O #2 z

 C #1 z    0.000000
 O #2 z    0.000000    0.000000


           Symmetry 2

           C #1 x      O #2 x

 C #1 x    0.000000
 O #2 x    0.000000    0.000000


           Symmetry 3

           C #1 y      O #2 y

 C #1 y    0.000000
 O #2 y    0.000000    0.000000




           C #1 x      C #1 y      C #1 z      O #2 x      O #2 y      O #2 z




                Electronic contributions to dipole moment
                -----------------------------------------

                               au             Debye

                    z     -0.32656724     -0.83005128

  Conversion factor used: 1 a.u. =   2.54174691 Debye 



   Electronic contributions to static part of dipole moment derivatives
   --------------------------------------------------------------------


                     Total dipole moment derivatives
                     -------------------------------


           Symmetry 1
                              Ez

               C #1 z    -5.89106802
               O #2 z    -8.10893198

           Symmetry 2
                              Ex

               C #1 x    -5.92292439
               O #2 x    -8.07707561

           Symmetry 3
                              Ey

               C #1 y    -5.92292439
               O #2 y    -8.07707561



                       Ex          Ey          Ez

      C #1    x   -5.922924    0.000000    0.000000
      C #1    y    0.000000   -5.922924    0.000000
      C #1    z    0.000000    0.000000   -5.891068

      O #2    x   -8.077076    0.000000    0.000000
      O #2    y    0.000000   -8.077076    0.000000
      O #2    z    0.000000    0.000000   -8.108932

 Evaluation of 1e integral derivatives required    1.71 seconds.
                    8815  records have been written to the Sort file.
  Total length of Sort file :             180513570  words.
 Evaluation of 2el integral derivatives

                      Two-electron integral gradient
                      ------------------------------

                         C #1 z   -11.4679559635
                         O #2 z    11.4679559635


 C #1       0.0000000000            0.0000000000          -11.4679559635
 O #2       0.0000000000            0.0000000000           11.4679559635


 Evaluation of 2e integral derivatives required  673.26 seconds.

                            Molecular gradient
                            ------------------

                         C #1 z    -1.1606182380
                         O #2 z     1.1606182380


 C #1       0.0000000000            0.0000000000           -1.1606182380
 O #2       0.0000000000            0.0000000000            1.1606182380


  Molecular gradient norm 0.164E+01

                            Molecular hessian
                            -----------------


           Symmetry 1

           C #1 z      O #2 z

 C #1 z  121.491592
 O #2 z -121.491592  121.491592


           Symmetry 2

           C #1 x      O #2 x

 C #1 x   20.597498
 O #2 x  -20.597498   20.597498


           Symmetry 3

           C #1 y      O #2 y

 C #1 y   20.597498
 O #2 y  -20.597498   20.597498




           C #1 x      C #1 y      C #1 z      O #2 x      O #2 y      O #2 z

 C #1 x   20.597498
 C #1 y    0.000000   20.597498
 C #1 z    0.000000    0.000000  121.491592

 O #2 x  -20.597498    0.000000    0.000000   20.597498
 O #2 y    0.000000  -20.597498    0.000000    0.000000   20.597498
 O #2 z    0.000000    0.000000 -121.491592    0.000000    0.000000  121.491592




                           Total dipole moment
                           -------------------

                               au             Debye

                    z     -0.32842093     -0.83476288

  Conversion factor used: 1 a.u. =   2.54174691 Debye 



                     Total dipole moment derivatives
                     -------------------------------


           Symmetry 1
                              Ez

               C #1 z     0.61039002
               O #2 z    -0.61039002

           Symmetry 2
                              Ex

               C #1 x    -0.19646401
               O #2 x     0.19646401

           Symmetry 3
                              Ey

               C #1 y    -0.19646401
               O #2 y     0.19646401



                       Ex          Ey          Ez

      C #1    x   -0.196464    0.000000    0.000000
      C #1    y    0.000000   -0.196464    0.000000
      C #1    z    0.000000    0.000000    0.610390

      O #2    x    0.196464    0.000000    0.000000
      O #2    y    0.000000    0.196464    0.000000
      O #2    z    0.000000    0.000000   -0.610390

 @CHECKOUT-I, Total execution time (CPU/WALL):      674.97/     115.75 seconds.
--executable xvdint finished with status     0 in      115.77 seconds (walltime).
 --invoking executable--
/nfs/workspaces/public/cfour_mpi/bin/xjoda
  @GTFLGS-I, Hessian will be transformed to curvilinear coordinates.
  @GTFLGS-I, Hessian will be transformed to curvilinear coordinates.
  igrd and ihes are                      0                     1
  gradient from JOBARC 
   0.000000000000000   0.000000000000000  -1.160618238024647
   0.000000000000000   0.000000000000000   1.160618238024647
 
  @PROJFCM-I, Projecting force constant matrix onto totally symmetric subspace.
  Largest difference between matrix elements of symmetrized
  and unsymmetrized FCM :    -0.1882725087E-08.
  read isotopes from ZMAT file 
 
  Summary of diagonal Born-Oppenheimer correction at the correlated level
  The total diagonal Born-Oppenheimer correction (DBOC) is:      0.0041745220 a.u.
  The total diagonal Born-Oppenheimer correction (DBOC) is:        916.201687 cm-1
  The total diagonal Born-Oppenheimer correction (DBOC) is:            10.960 kJ/mole
  hellooooooo 
  readis is  F
 
 @CHECKOUT-I, Total execution time (CPU/WALL):        0.01/       0.03 seconds.
--executable xjoda finished with status     0 in        0.09 seconds (walltime).
  The final electronic energy is      -113.081487906328078 a.u. 
  This computation required                         2565.30 seconds (walltime).
