 --invoking executable--
/nfs/workspaces/public/cfour_mpi/bin/xjoda


   *************************************************************************
         <<<     CCCCCC     CCCCCC   |||     CCCCCC     CCCCCC   >>>
       <<<      CCC        CCC       |||    CCC        CCC         >>>
      <<<      CCC        CCC        |||   CCC        CCC            >>>
    <<<        CCC        CCC        |||   CCC        CCC              >>>
      <<<      CCC        CCC        |||   CCC        CCC            >>>
       <<<      CCC        CCC       |||    CCC        CCC         >>>
         <<<     CCCCCC     CCCCCC   |||     CCCCCC     CCCCCC   >>>
   *************************************************************************

     ****************************************************************
     * CFOUR Coupled-Cluster techniques for Computational Chemistry *
     ****************************************************************
 

   Department of Chemistry                Institut fuer Physikalische Chemie
   University of Florida                  Universitaet Mainz
   Gainesville, FL 32611, USA             D-55099 Mainz, Germany

   Department of Chemistry                Fakultaet fuer Chemie und Biowiss.
   Johns Hopkins University               Karlsruher Institut fuer Technologie
   Baltimore, MD 21218, USA               D-76131 Karlsruhe, Germany

   Department of Chemistry                Department of Physical Chemistry
   Southern Methodist University          Eotvos Lorand University
   Dallas, TX 75275, USA                  H-1053 Budapest, Hungary

 
                       Version 2.1
 
                     vincent.theory.phys.ucl.ac.uk                     
                     Fri  7 Feb 10:43:17 GMT 2025                      
                     integer*8 version is running
 
********************************************************************************
*                          Input from ZMAT file                                *
********************************************************************************
Carbon Monoxide DBOC calculation                                                
C                                                                               
O 1 r                                                                           
                                                                                
r=1.12825                                                                       
                                                                                
                                                                                
*CFOUR(CALC=CCSD,BASIS=AUG-PCVQZ,SCF_CONV=10                                    
CC_CONV=14,DBOC=OFF,MEMORY=500000000                                            
ZFIELD=1)                                                                       
                                                                                
%isotopes                                                                       
12                                                                              
16                                                                              
                                                                                
%integrals                                                                      
dipole                                                                          
********************************************************************************
  @GTFLGS-I, Hessian will be transformed to curvilinear coordinates.
    -------------------------------------------------------------------
                    CFOUR Control Parameters 
    -------------------------------------------------------------------
        External           Internal           Value            Units
          Name               Name
    -------------------------------------------------------------------
       ABCDTYPE             IABCDT         STANDARD    [  0]    ***   
       ANHARMONIC           IANHAR         OFF         [  0]    ***   
       ANH_ALGORIT          IANALG         STANDARD    [  0]    ***   
       ANH_DERIVAT          IANDER         SECOND      [  1]    ***   
       ANH_MODE             ANHMOD         VIBRATION   [  0]    ***   
       ANH_STEPSIZ          ICUBST             50000          x 10-6  
       ANH_SYMMETR          IANHSM         ABELIAN     [  0]    ***   
       AO_LADDERS           IAOLAD         SINGLEPASS  [  1]    ***   
       AV_SCF               IAVSCF         OFF         [  0]    ***   
       BASIS                IBASIS         AUG-PCVQZ   [ 52]    ***   
       BOTHVECTORS          BOTHVC         OFF         [  0]    ***   
       BOX_POTENT           IPIAB          OFF         [  0]    ***   
       BREIT                IBREIT         OFF         [  0]    ***   
       BRUCK_CONV           IBRTOL          10D-  4             ***   
       BRUECKNER            IBRKNR         OFF         [  0]    ***   
       BUFFERSIZE           IBUFFS              4096            ***   
       CACHE_RECS           ICHREC             10               ***   
       CALCLEVEL            ICLLVL         CCSD        [ 10]    ***   
       CCORBOPT             ICCORB         OFF         [  0]  x 0.01  
       CC_CONV              ICCCNV          10D- 14             ***   
       CC_EXPORDER          ICCEOR              5               ***   
       CC_EXTRAPOL          ICCEXT         DIIS        [  1]    ***   
       CC_GUESS             ICCGES         MP2         [  0]    ***   
       CC_MAXCYC            ICCCYC            100              cycles 
       CC_PROGRAM           ICCPRO         VCC         [  0]    ***   
       CHARGE               ICHRGE              0               ***   
       CHOLESKY             ICHOLE         OFF         [  0]    ***   
       CIS_CONV             ICISTL              5               ***   
       COMM_SIZE            IPSIZE            ***               ***   
       CONSTANT             ICONST         OLD         [  1]    ***   
       CONTINUUM            ICONTU         NONE        [  0]    ***   
       CONTRACTION          ICNTYP         GENERAL     [  1]    ***   
       COORDINATES          ICOORD         INTERNAL    [  0]    ***   
       CPHF_CONVER          ICPHFT          10D- 16             ***   
       CPHF_MAXCYC          ICPHFC             64              cycles 
       CUBIC                ICUBIC         OFF         [  0]    ***   
       CURVILINEAR          ICURVY         ON          [  1]    ***   
       DBOC                 IDBOC          OFF         [  0]    ***   
       DCT                  IDCT           OFF         [  0]    ***   
       DERIV_LEV            IDRLVL         ZERO        [  0]    ***   
       DEVMEM_SIZE          IDVMEM          50000000           MByte  
       DIAG_MRCC            IEOMST          10D-  0             ***   
       DIFF_TYPE            IDIFTY         RELAXED     [  0]    ***   
       DIRECT               IDIRCT         OFF         [  0]    ***   
       DROPMO               IDRPMO      NONE         
       ECP                  IECP           OFF         [  0]    ***   
       EIGENVECTOR          IVEC                1               ***   
       EL_ANHARM            IELANH         OFF         [  0]    ***   
       EOMFOLLOW            IEOMSR         ENERGY      [  0]    ***   
       EOMIP                IEOMIP         OFF         [  0]    ***   
       EOMLEVEL             HBARFM         SAME        [  0]    ***   
       EOM_MRCC             IMRCCE         NEW         [  1]    ***   
       EOM_NONIT            EOMNON         OFF         [  0]    ***   
       EOM_NSING            IEOMSI          10D-  0             ***   
       EOM_NSTATES          IMRCCD         DAVIDSON    [  0]    ***   
       EOM_NTRIP            IEOMTR          10D-  0             ***   
       EOM_ORDER            IEXORD         ENERGY      [  0]    ***   
       EOM_PROPSTA          IEOMST              0               ***   
       ESTATE_CONV          IEXTOL          10D-  5             ***   
       ESTATE_DIAG          IEXDIG         ITERATIVE   [  0]    ***   
       ESTATE_LOCK          IESLOC         ON          [  1]    ***   
       ESTATE_MAXC          IEXMXC             40               ***   
       ESTATE_PROP          IEXPRP         OFF         [  0]    ***   
       EVAL_HESS            IRECAL              0            # of cyc.
       EXCITATION           IEXCIT              0               ***   
       EXCITE               IEXCIT         NONE        [  0]    ***   
       EXTERN_POT           IEXPOT         OFF         [  0]    ***   
       FCGRADNEW            IFCGNW         OFF         [  0]    ***   
       FC_FIELD             IFINFC              0             x 10-6  
       FD_CALTYPE           IFDCAL         GRADONLY    [  0]    ***   
       FD_PROJECT           IFDPRJ         OFF         [  1]    ***   
       FD_STEPSIZE          IDISFD              0            10-4 bohr
       FD_USEGROUP          IFDGRP         FULL        [  0]    ***   
       FILE_RECSIZ          IFLREC              4096           words  
       FINITE_PERT          IFIPER              0             x 10-6  
       FIXGEOM              IFIXGM         OFF         [  0]    ***   
       FOCK                 IFOCK          AO          [  1]    ***   
       FREQ_ALGORI          IVIALG         STANDARD    [  0]    ***   
       FROZEN_CORE          IFROCO         OFF         [  0]    ***   
       GAMMA_ABCD           IGABCD         STORE       [  0]    ***   
       GAMMA_ABCI           IGABCI         STORE       [  0]    ***   
       GENBAS_1             IGNBS1              0               ***   
       GENBAS_2             IGNBS2              0               ***   
       GENBAS_3             IGNBS3              0               ***   
       GENBAS_4             IGNBS4              0               ***   
       GEO_CONV             ICONTL              5              H/bohr 
       GEO_MAXCYC           IOPTCY             50               ***   
       GEO_MAXSTEP          IMXSTP            300            millibohr
       GEO_METHOD           INR            SINGLE_POINT[  5]    ***   
       GIAO                 IGIAO          OFF         [  1]    ***   
       GIMIC                IGIMIC         OFF         [  0]    ***   
       GRID                 IGRID          OFF         [  0]    ***   
       GRID_ALGO            IGALGO         SERIAL      [  0]    ***   
       GUESS                IGUESS         MOREAD      [  0]    ***   
       HBAR                 IHBAR          OFF         [  0]    ***   
       HESS_TYPE            IHESTP         SCF         [  0]    ***   
       HF2_FILE             IHF2Fl         USE         [  1]    ***   
       HFSTABILITY          ISTABL         OFF         [  0]    ***   
       INCORE               INCORE         OFF         [  0]    ***   
       INPUT_MRCC           IMRCC          ON          [  1]    ***   
       INTEGRALS            INTTYP         VMOL        [  1]    ***   
       JODA_PRINT           IJPRNT              0               ***   
       KEYWORD_OUT          IDMPKW         NO          [  0]    ***   
       LINDEP_TOL           ILINDP              8               ***   
       LINEQ_CONV           IZTACN          10D-  7           cycles  
       LINEQ_EXPOR          ILMAXD              5               ***   
       LINEQ_MAXCY          ILMAXC            100               ***   
       LINEQ_TYPE           ILTYPE         DIIS        [  1]    ***   
       LOCK_ORBOCC          ILOCOC         OFF         [  0]    ***   
       MEMORY_SIZE          IMEMSZ         500000000           words  
       MEM_UNIT             IMEMU          INTEGERWORDS[  0]    ***   
       MRCC                 IMRCCC         OFF         [  0]    ***   
       MULTIPLICTY          IMULTP              1               ***   
       NACOUPLING           IVCOUP         OFF         [  0]    ***   
       NEGEVAL              IDIE           ABORT       [  0]    ***   
       NEWNORM              INEWNO         OFF         [  0]    ***   
       NON-HF               INONHF         OFF         [  0]    ***   
       NTOP_TAMP            ITOPT2             15               ***   
       NUC_MODEL            INUCMO         POINT       [  0]    ***   
       OCCUPATION           IOCCU   ESTIMATED BY SCF 
       OPEN-SHELL           IOPEN          SPIN-ORBITAL[  0]    ***   
       OPTVIB               IOPTVB         OFF         [  0]    ***   
       ORBITALS             IORBTP         STANDARD    [  0]    ***   
       PARALLEL             IPARAL         ON          [  1]    ***   
       PARA_INT             IPINTS         ON          [  1]    ***   
       PARA_PRINT           IPPRIN              0               ***   
       PERT_ORB             IPTORB         STANDARD    [  0]    ***   
       POINTS               IGRDFD              0               ***   
       PRINT                IPRNT               0               ***   
       PROPS                IPROPS         OFF         [  0]    ***   
       PROP_INTEGR          IINTYP         INTERNAL    [  0]    ***   
       PSI                  IPSI           OFF         [  0]    ***   
       QC_ALG               IQCALG         FLM         [  0]    ***   
       QC_LINALG            IQCLIN         TRIDIAG     [  2]    ***   
       QC_MAXCYC            IQCMAX          10D-100           cycles  
       QC_MAXSCFCY          IQCMSC          10D- 15           cycles  
       QC_RTRUST            IQCRTR          10D-  0           x 10-3  
       QC_SKIPSCF           IQCSKI         OFF         [  0]    ***   
       QC_START             IQCSTA          10D-  1             ***   
       QRHFGUESS            IQGUES         OFF         [  0]    ***   
       QUARTIC              IQUART         OFF         [  0]    ***   
       RAMAN_INT            IRAMIN         OFF         [  0]    ***   
       RAMAN_ORB            IRAMRE         UNRELAXED   [  0]    ***   
       RDO                  IRDOFM         OFF         [  0]    ***   
       REDUCE_REPR          REDREP         Ir          [  0]    ***   
       REFERENCE            IREFNC         RHF         [  0]    ***   
       RELATIVIST           IRELAT         OFF         [  0]    ***   
       RELAX_DENS           IRDENS         OFF         [  0]    ***   
       RESET_FLAGS          IRESET         OFF         [  0]    ***   
       RESTART_CC           ICCRES         OFF         [  0]    ***   
       ROT_EVEC             ROTVEC              0               ***   
       SAVE_INTS            ISVINT         OFF         [  0]    ***   
       SCALE_ON             ISTCRT              0               ***   
       SCF_CONV             ISCFCV          10D- 10             ***   
       SCF_DAMPING          IDAMP               0             x 10-3  
       SCF_EXPORDE          IRPPOR              6               ***   
       SCF_EXPSTAR          IRPPLS              8               ***   
       SCF_EXTRAPO          IRPP           ON          [  1]    ***   
       SCF_MAXCYC           ISCFCY            150              cycles 
       SCF_NOSTOP           ISCFST         OFF         [  0]    ***   
       SCF_PRINT            ISCFPR              0               ***   
       SCF_PROG             ISCFPR         SCF         [  0]    ***   
       SD_FIELD             IFINSD              0             x 10-6  
       SOPERT               IPERSO         OFF         [  0]    ***   
       SPHERICAL            IDFGHI         ON          [  1]    ***   
       SPINORBIT            ISOCAL         OFF         [  0]    ***   
       SPINROTATIO          ISRCON         OFF         [  0]    ***   
       SPIN_FLIP            ISPFLP         OFF         [  0]    ***   
       SPIN_ORBIT           ISPORB         OFF         [  0]    ***   
       SPIN_SCAL            ISCSMP         OFF         [  0]    ***   
       STEEPSCALE           ISTPSC              1000          x 10-3  
       SUBGROUP             ISUBGP         DEFAULT     [  0]    ***   
       SUBGRPAXIS           ISBXYZ         X           [  0]    ***   
       SYMMETRY             ISYM           ON          [  0]    ***   
       SYM_CHECK            ISYMCK         OVERRIDE    [  1]    ***   
       T3_EXTRAPOL          IT3EXT         OFF         [  0]    ***   
       T4_EXTRAPOL          IT4EXP         OFF         [  0]    ***   
       TAMP_SUM             IEVERY              5               ***   
       TESTSUITE            ITESTS         OFF         [  0]    ***   
       THERMOCH             ITHERM         OFF         [  0]    ***   
       TOL_CHOLESK          ITOLCH          10D-  4             ***   
       TRANGRAD             IRESRM         OFF         [  0]    ***   
       TRANS_INV            ITRAIN         USE         [  0]    ***   
       TREAT_PERT           ITREAT         SIMULTANEOUS[  0]    ***   
       TRIP_ALGORI          ITRALG         NORMAL      [  0]    ***   
       UIJ_THRESHO          IUIJTH              1               ***   
       UNITS                IUNITS         ANGSTROM    [  0]    ***   
       UNOS                 IUNOS          OFF         [  0]    ***   
       UPDATE_HESS          IHUPDT         ON          [  1]    ***   
       VIBPHASE             ISETPH         STANDARD    [  0]    ***   
       VIBRATION            IVIB           NO          [  0]    ***   
       VIB_ALGORIT          IGEALG         STANDARD    [  0]    ***   
       VNATORB              IVNORB         OFF         [  0]    ***   
       VTRAN                IVTRAN         FULL/PARTIAL[  0]    ***   
       XFIELD               IXEFLD              0             x 10-6  
       XFORM_TOL            IXFTOL          10D- 11             ***   
       YFIELD               IYEFLD              0             x 10-6  
       ZFIELD               IZEFLD              1             x 10-6  
       ZSCALE_EXP           IZEXPS         OFF         [  0]    ***   
    -------------------------------------------------------------------
   2 entries found in Z-matrix 
   Job Title : Carbon Monoxide DBOC calculation                                                
   There are  1 unique internal coordinates.
   Of these,  0 will be optimized.
   User supplied Z-matrix: 
--------------------------------------------------------------------------------
       SYMBOL    BOND      LENGTH    ANGLE     ANGLE     DIHED     ANGLE
                  TO      (ANGST)    WRT      (DEG)      WRT      (DEG)
--------------------------------------------------------------------------------
        C    
        O          1         r    
                  *Initial values for internal coordinates* 
                      Name             Value
                        r               1.1282500000
--------------------------------------------------------------------------------
  read isotopes from ZMAT file 
   Rotational constants (in cm-1): 
          1.9315317250             1.9315317250
   Rotational constants (in MHz): 
      57905.8724666917         57905.8724666917
********************************************************************************
   The full molecular point group is CXv .
   The largest Abelian subgroup of the full molecular point group is C2v .
   The computational point group is C2v .
********************************************************************************
--------------------------------------------------------------------------------
   Analysis of internal coordinates specified by Z-matrix 
--------------------------------------------------------------------------------
   *The nuclear repulsion energy is   22.513184843784618 a.u.
   *There is   1 degree of freedom within the tot. symm. molecular subspace.
   *Z-matrix requests optimization of   0 coordinates.
   *The optimization is constrained.
   *The following   1 parameters can have non-zero 
    derivatives within the totally symmetric subspace:
             r    [ 1]
   *The following   0 parameters are to be optimized:

   *The following coordinates must be varied in an  unconstrained optimization.
             r    [ 1]
--------------------------------------------------------------------------------


 ----------------------------------------------------------------
         Coordinates used in calculation (QCOMP) 
 ----------------------------------------------------------------
 Z-matrix   Atomic            Coordinates (in bohr)
  Symbol    Number           X              Y              Z
 ----------------------------------------------------------------
     C         6        -0.00000000     0.00000000     1.21816770
     O         8         0.00000000     0.00000000    -0.91391625
 ----------------------------------------------------------------
 
   Interatomic distance matrix (Angstroms) 
 
                 C             O    
                [ 1]        [ 2]
  C    [ 1]     0.00000
  O    [ 2]     1.12825     0.00000
 rotcon2
   Rotational constants (in cm-1): 
          1.9315317250             0.0000000000
   Rotational constants (in MHz): 
      57905.8724666917             0.0000000000
  ECPDATA file not present.   Using default ECPDATA. 
  @GTFLGS-I, Hessian will be transformed to curvilinear coordinates.
  There are  218 basis functions.
 @GEOPT-W, Archive file not created for single-point calculation.
 @CHECKOUT-I, Total execution time (CPU/WALL):        0.12/       0.16 seconds.
--executable xjoda finished with status     0 in        0.18 seconds (walltime).
 --invoking executable--
/nfs/workspaces/public/cfour_mpi/bin/xvmol
 SERIAL VERSION OF MOLECULE STARTED
********************************************************************************
                    INPUT FROM MOL FILE
********************************************************************************
INTGRL        1    0    1    0    0    0    0    0    0                         
         *** CFOUR Program System (Release V0.1) ***                            
Carbon Monoxide DBOC calculation                                                
    2    2 X  Y       0.10E-08              0    0                              
   9999.00      3.00                                                            
          6.00000000    1    5    1    1    1    1    1                         
C #1  -0.000000000000000   0.000000000000000   1.218167698172089                
   16    9                                                                      
   33980.0000000000       9.100000000000000E-005 -1.900000000000000E-005        
  0.000000000000000E+000  0.000000000000000E+000  0.000000000000000E+000        
  0.000000000000000E+000  0.000000000000000E+000  0.000000000000000E+000        
  0.000000000000000E+000                                                        
   5089.00000000000       7.040000000000000E-004 -1.510000000000000E-004        
  0.000000000000000E+000  0.000000000000000E+000  0.000000000000000E+000        
  0.000000000000000E+000  0.000000000000000E+000  0.000000000000000E+000        
  0.000000000000000E+000                                                        
   1157.00000000000       3.693000000000000E-003 -7.850000000000000E-004        
  0.000000000000000E+000  0.000000000000000E+000  0.000000000000000E+000        
  0.000000000000000E+000  0.000000000000000E+000  0.000000000000000E+000        
  0.000000000000000E+000                                                        
   326.600000000000       1.536000000000000E-002 -3.324000000000000E-003        
  0.000000000000000E+000  0.000000000000000E+000  0.000000000000000E+000        
  0.000000000000000E+000  0.000000000000000E+000  0.000000000000000E+000        
  0.000000000000000E+000                                                        
   106.100000000000       5.292900000000000E-002 -1.151200000000000E-002        
  0.000000000000000E+000  0.000000000000000E+000  0.000000000000000E+000        
  0.000000000000000E+000  0.000000000000000E+000  0.000000000000000E+000        
  0.000000000000000E+000                                                        
   38.1100000000000       0.147043000000000      -3.416000000000000E-002        
  0.000000000000000E+000  0.000000000000000E+000  0.000000000000000E+000        
  0.000000000000000E+000  0.000000000000000E+000  0.000000000000000E+000        
  0.000000000000000E+000                                                        
   14.7500000000000       0.305631000000000      -7.717300000000001E-002        
  0.000000000000000E+000  0.000000000000000E+000  0.000000000000000E+000        
  0.000000000000000E+000  0.000000000000000E+000  0.000000000000000E+000        
  0.000000000000000E+000                                                        
   6.03500000000000       0.399345000000000      -0.141493000000000             
  0.000000000000000E+000  0.000000000000000E+000  0.000000000000000E+000        
  0.000000000000000E+000  0.000000000000000E+000  0.000000000000000E+000        
  0.000000000000000E+000                                                        
   2.53000000000000       0.217051000000000      -0.118019000000000             
  0.000000000000000E+000  0.000000000000000E+000  0.000000000000000E+000        
  0.000000000000000E+000  0.000000000000000E+000  0.000000000000000E+000        
  0.000000000000000E+000                                                        
  0.735500000000000       1.589400000000000E-002  0.273806000000000             
   1.00000000000000       0.000000000000000E+000  0.000000000000000E+000        
  0.000000000000000E+000  0.000000000000000E+000  0.000000000000000E+000        
  0.000000000000000E+000                                                        
  0.290500000000000      -3.084000000000000E-003  0.586510000000000             
  0.000000000000000E+000   1.00000000000000       0.000000000000000E+000        
  0.000000000000000E+000  0.000000000000000E+000  0.000000000000000E+000        
  0.000000000000000E+000                                                        
  0.111100000000000       9.779999999999999E-004  0.285430000000000             
  0.000000000000000E+000  0.000000000000000E+000   1.00000000000000             
  0.000000000000000E+000  0.000000000000000E+000  0.000000000000000E+000        
  0.000000000000000E+000                                                        
   7.21600000000000       0.000000000000000E+000  0.000000000000000E+000        
  0.000000000000000E+000  0.000000000000000E+000  0.000000000000000E+000        
   1.00000000000000       0.000000000000000E+000  0.000000000000000E+000        
  0.000000000000000E+000                                                        
   19.5700000000000       0.000000000000000E+000  0.000000000000000E+000        
  0.000000000000000E+000  0.000000000000000E+000  0.000000000000000E+000        
  0.000000000000000E+000   1.00000000000000       0.000000000000000E+000        
  0.000000000000000E+000                                                        
   53.0730000000000       0.000000000000000E+000  0.000000000000000E+000        
  0.000000000000000E+000  0.000000000000000E+000  0.000000000000000E+000        
  0.000000000000000E+000  0.000000000000000E+000   1.00000000000000             
  0.000000000000000E+000                                                        
  4.145000000000000E-002  0.000000000000000E+000  0.000000000000000E+000        
  0.000000000000000E+000  0.000000000000000E+000  0.000000000000000E+000        
  0.000000000000000E+000  0.000000000000000E+000  0.000000000000000E+000        
   1.00000000000000                                                             
   10    8                                                                      
   34.5100000000000       5.378000000000000E-003  0.000000000000000E+000        
  0.000000000000000E+000  0.000000000000000E+000  0.000000000000000E+000        
  0.000000000000000E+000  0.000000000000000E+000  0.000000000000000E+000        
   7.91500000000000       3.613200000000000E-002  0.000000000000000E+000        
  0.000000000000000E+000  0.000000000000000E+000  0.000000000000000E+000        
  0.000000000000000E+000  0.000000000000000E+000  0.000000000000000E+000        
   2.36800000000000       0.142493000000000       0.000000000000000E+000        
  0.000000000000000E+000  0.000000000000000E+000  0.000000000000000E+000        
  0.000000000000000E+000  0.000000000000000E+000  0.000000000000000E+000        
  0.813200000000000       0.342150000000000        1.00000000000000             
  0.000000000000000E+000  0.000000000000000E+000  0.000000000000000E+000        
  0.000000000000000E+000  0.000000000000000E+000  0.000000000000000E+000        
  0.289000000000000       0.463864000000000       0.000000000000000E+000        
   1.00000000000000       0.000000000000000E+000  0.000000000000000E+000        
  0.000000000000000E+000  0.000000000000000E+000  0.000000000000000E+000        
  0.100700000000000       0.250028000000000       0.000000000000000E+000        
  0.000000000000000E+000   1.00000000000000       0.000000000000000E+000        
  0.000000000000000E+000  0.000000000000000E+000  0.000000000000000E+000        
   8.18200000000000       0.000000000000000E+000  0.000000000000000E+000        
  0.000000000000000E+000  0.000000000000000E+000   1.00000000000000             
  0.000000000000000E+000  0.000000000000000E+000  0.000000000000000E+000        
   24.1860000000000       0.000000000000000E+000  0.000000000000000E+000        
  0.000000000000000E+000  0.000000000000000E+000  0.000000000000000E+000        
   1.00000000000000       0.000000000000000E+000  0.000000000000000E+000        
   71.4940000000000       0.000000000000000E+000  0.000000000000000E+000        
  0.000000000000000E+000  0.000000000000000E+000  0.000000000000000E+000        
  0.000000000000000E+000   1.00000000000000       0.000000000000000E+000        
  3.218000000000000E-002  0.000000000000000E+000  0.000000000000000E+000        
  0.000000000000000E+000  0.000000000000000E+000  0.000000000000000E+000        
  0.000000000000000E+000  0.000000000000000E+000   1.00000000000000             
    6    6                                                                      
   1.84800000000000        1.00000000000000       0.000000000000000E+000        
  0.000000000000000E+000  0.000000000000000E+000  0.000000000000000E+000        
  0.000000000000000E+000                                                        
  0.649000000000000       0.000000000000000E+000   1.00000000000000             
  0.000000000000000E+000  0.000000000000000E+000  0.000000000000000E+000        
  0.000000000000000E+000                                                        
  0.228000000000000       0.000000000000000E+000  0.000000000000000E+000        
   1.00000000000000       0.000000000000000E+000  0.000000000000000E+000        
  0.000000000000000E+000                                                        
   8.65600000000000       0.000000000000000E+000  0.000000000000000E+000        
  0.000000000000000E+000   1.00000000000000       0.000000000000000E+000        
  0.000000000000000E+000                                                        
   33.2130000000000       0.000000000000000E+000  0.000000000000000E+000        
  0.000000000000000E+000  0.000000000000000E+000   1.00000000000000             
  0.000000000000000E+000                                                        
  7.660000000000000E-002  0.000000000000000E+000  0.000000000000000E+000        
  0.000000000000000E+000  0.000000000000000E+000  0.000000000000000E+000        
   1.00000000000000                                                             
    4    4                                                                      
   1.41900000000000        1.00000000000000       0.000000000000000E+000        
  0.000000000000000E+000  0.000000000000000E+000                                
  0.485000000000000       0.000000000000000E+000   1.00000000000000             
  0.000000000000000E+000  0.000000000000000E+000                                
   24.6940000000000       0.000000000000000E+000  0.000000000000000E+000        
   1.00000000000000       0.000000000000000E+000                                
  0.187000000000000       0.000000000000000E+000  0.000000000000000E+000        
  0.000000000000000E+000   1.00000000000000                                     
    2    2                                                                      
   1.01100000000000        1.00000000000000       0.000000000000000E+000        
  0.424000000000000       0.000000000000000E+000   1.00000000000000             
          8.00000000    1    5    1    1    1    1    1                         
O #2   0.000000000000000   0.000000000000000  -0.913916248771193                
   16    9                                                                      
   61420.0000000000       9.000000000000001E-005 -2.000000000000000E-005        
  0.000000000000000E+000  0.000000000000000E+000  0.000000000000000E+000        
  0.000000000000000E+000  0.000000000000000E+000  0.000000000000000E+000        
  0.000000000000000E+000                                                        
   9199.00000000000       6.980000000000001E-004 -1.590000000000000E-004        
  0.000000000000000E+000  0.000000000000000E+000  0.000000000000000E+000        
  0.000000000000000E+000  0.000000000000000E+000  0.000000000000000E+000        
  0.000000000000000E+000                                                        
   2091.00000000000       3.664000000000000E-003 -8.290000000000000E-004        
  0.000000000000000E+000  0.000000000000000E+000  0.000000000000000E+000        
  0.000000000000000E+000  0.000000000000000E+000  0.000000000000000E+000        
  0.000000000000000E+000                                                        
   590.900000000000       1.521800000000000E-002 -3.508000000000000E-003        
  0.000000000000000E+000  0.000000000000000E+000  0.000000000000000E+000        
  0.000000000000000E+000  0.000000000000000E+000  0.000000000000000E+000        
  0.000000000000000E+000                                                        
   192.300000000000       5.242300000000000E-002 -1.215600000000000E-002        
  0.000000000000000E+000  0.000000000000000E+000  0.000000000000000E+000        
  0.000000000000000E+000  0.000000000000000E+000  0.000000000000000E+000        
  0.000000000000000E+000                                                        
   69.3200000000000       0.145921000000000      -3.626100000000000E-002        
  0.000000000000000E+000  0.000000000000000E+000  0.000000000000000E+000        
  0.000000000000000E+000  0.000000000000000E+000  0.000000000000000E+000        
  0.000000000000000E+000                                                        
   26.9700000000000       0.305258000000000      -8.299200000000000E-002        
  0.000000000000000E+000  0.000000000000000E+000  0.000000000000000E+000        
  0.000000000000000E+000  0.000000000000000E+000  0.000000000000000E+000        
  0.000000000000000E+000                                                        
   11.1000000000000       0.398508000000000      -0.152090000000000             
  0.000000000000000E+000  0.000000000000000E+000  0.000000000000000E+000        
  0.000000000000000E+000  0.000000000000000E+000  0.000000000000000E+000        
  0.000000000000000E+000                                                        
   4.68200000000000       0.216980000000000      -0.115331000000000             
  0.000000000000000E+000  0.000000000000000E+000  0.000000000000000E+000        
  0.000000000000000E+000  0.000000000000000E+000  0.000000000000000E+000        
  0.000000000000000E+000                                                        
   1.42800000000000       1.759400000000000E-002  0.288979000000000             
   1.00000000000000       0.000000000000000E+000  0.000000000000000E+000        
  0.000000000000000E+000  0.000000000000000E+000  0.000000000000000E+000        
  0.000000000000000E+000                                                        
  0.554700000000000      -2.502000000000000E-003  0.586128000000000             
  0.000000000000000E+000   1.00000000000000       0.000000000000000E+000        
  0.000000000000000E+000  0.000000000000000E+000  0.000000000000000E+000        
  0.000000000000000E+000                                                        
  0.206700000000000       9.540000000000000E-004  0.277624000000000             
  0.000000000000000E+000  0.000000000000000E+000   1.00000000000000             
  0.000000000000000E+000  0.000000000000000E+000  0.000000000000000E+000        
  0.000000000000000E+000                                                        
   12.9740000000000       0.000000000000000E+000  0.000000000000000E+000        
  0.000000000000000E+000  0.000000000000000E+000  0.000000000000000E+000        
   1.00000000000000       0.000000000000000E+000  0.000000000000000E+000        
  0.000000000000000E+000                                                        
   34.9000000000000       0.000000000000000E+000  0.000000000000000E+000        
  0.000000000000000E+000  0.000000000000000E+000  0.000000000000000E+000        
  0.000000000000000E+000   1.00000000000000       0.000000000000000E+000        
  0.000000000000000E+000                                                        
   93.8810000000000       0.000000000000000E+000  0.000000000000000E+000        
  0.000000000000000E+000  0.000000000000000E+000  0.000000000000000E+000        
  0.000000000000000E+000  0.000000000000000E+000   1.00000000000000             
  0.000000000000000E+000                                                        
  6.959000000000000E-002  0.000000000000000E+000  0.000000000000000E+000        
  0.000000000000000E+000  0.000000000000000E+000  0.000000000000000E+000        
  0.000000000000000E+000  0.000000000000000E+000  0.000000000000000E+000        
   1.00000000000000                                                             
   10    8                                                                      
   63.4200000000000       6.044000000000000E-003  0.000000000000000E+000        
  0.000000000000000E+000  0.000000000000000E+000  0.000000000000000E+000        
  0.000000000000000E+000  0.000000000000000E+000  0.000000000000000E+000        
   14.6600000000000       4.179900000000000E-002  0.000000000000000E+000        
  0.000000000000000E+000  0.000000000000000E+000  0.000000000000000E+000        
  0.000000000000000E+000  0.000000000000000E+000  0.000000000000000E+000        
   4.45900000000000       0.161143000000000       0.000000000000000E+000        
  0.000000000000000E+000  0.000000000000000E+000  0.000000000000000E+000        
  0.000000000000000E+000  0.000000000000000E+000  0.000000000000000E+000        
   1.53100000000000       0.356731000000000        1.00000000000000             
  0.000000000000000E+000  0.000000000000000E+000  0.000000000000000E+000        
  0.000000000000000E+000  0.000000000000000E+000  0.000000000000000E+000        
  0.530200000000000       0.448309000000000       0.000000000000000E+000        
   1.00000000000000       0.000000000000000E+000  0.000000000000000E+000        
  0.000000000000000E+000  0.000000000000000E+000  0.000000000000000E+000        
  0.175000000000000       0.244940000000000       0.000000000000000E+000        
  0.000000000000000E+000   1.00000000000000       0.000000000000000E+000        
  0.000000000000000E+000  0.000000000000000E+000  0.000000000000000E+000        
   14.4750000000000       0.000000000000000E+000  0.000000000000000E+000        
  0.000000000000000E+000  0.000000000000000E+000   1.00000000000000             
  0.000000000000000E+000  0.000000000000000E+000  0.000000000000000E+000        
   42.7300000000000       0.000000000000000E+000  0.000000000000000E+000        
  0.000000000000000E+000  0.000000000000000E+000  0.000000000000000E+000        
   1.00000000000000       0.000000000000000E+000  0.000000000000000E+000        
   126.140000000000       0.000000000000000E+000  0.000000000000000E+000        
  0.000000000000000E+000  0.000000000000000E+000  0.000000000000000E+000        
  0.000000000000000E+000   1.00000000000000       0.000000000000000E+000        
  5.348000000000000E-002  0.000000000000000E+000  0.000000000000000E+000        
  0.000000000000000E+000  0.000000000000000E+000  0.000000000000000E+000        
  0.000000000000000E+000  0.000000000000000E+000   1.00000000000000             
    6    6                                                                      
   3.77500000000000        1.00000000000000       0.000000000000000E+000        
  0.000000000000000E+000  0.000000000000000E+000  0.000000000000000E+000        
  0.000000000000000E+000                                                        
   1.30000000000000       0.000000000000000E+000   1.00000000000000             
  0.000000000000000E+000  0.000000000000000E+000  0.000000000000000E+000        
  0.000000000000000E+000                                                        
  0.444000000000000       0.000000000000000E+000  0.000000000000000E+000        
   1.00000000000000       0.000000000000000E+000  0.000000000000000E+000        
  0.000000000000000E+000                                                        
   14.9270000000000       0.000000000000000E+000  0.000000000000000E+000        
  0.000000000000000E+000   1.00000000000000       0.000000000000000E+000        
  0.000000000000000E+000                                                        
   57.5440000000000       0.000000000000000E+000  0.000000000000000E+000        
  0.000000000000000E+000  0.000000000000000E+000   1.00000000000000             
  0.000000000000000E+000                                                        
  0.154000000000000       0.000000000000000E+000  0.000000000000000E+000        
  0.000000000000000E+000  0.000000000000000E+000  0.000000000000000E+000        
   1.00000000000000                                                             
    4    4                                                                      
   2.66600000000000        1.00000000000000       0.000000000000000E+000        
  0.000000000000000E+000  0.000000000000000E+000                                
  0.859000000000000       0.000000000000000E+000   1.00000000000000             
  0.000000000000000E+000  0.000000000000000E+000                                
   26.4830000000000       0.000000000000000E+000  0.000000000000000E+000        
   1.00000000000000       0.000000000000000E+000                                
  0.324000000000000       0.000000000000000E+000  0.000000000000000E+000        
  0.000000000000000E+000   1.00000000000000                                     
    2    2                                                                      
   1.84600000000000        1.00000000000000       0.000000000000000E+000        
  0.714000000000000       0.000000000000000E+000   1.00000000000000             
FINISH                                                                          
 
********************************************************************************
 ONE- AND TWO-ELECTRON INTEGRALS OVER SYMMETRY-ADAPTED AOS ARE CALCULATED.

  SPHERICAL HARMONICS ARE USED.
  
  INTEGRALS LESS THAN  0.10E-13 ARE NEGLECTED.

  NUCLEAR REPULSION ENERGY :   22.5131848438 A.U.
  @MOLECU-I, ONE ELECTRON INTEGRALS (CPU/WALL):        0.05/       0.06 SECONDS.
  @TWOEL-I,    4595968 INTEGRALS OF SYMMETRY TYPE  I I I I
  @TWOEL-I,   19727067 INTEGRALS OF SYMMETRY TYPE  I J I J
  @TWOEL-I,   10395446 INTEGRALS OF SYMMETRY TYPE  I I J J
  @TWOEL-I,   14595839 INTEGRALS OF SYMMETRY TYPE  I J K L
  @TWOEL-I, TOTAL NUMBER OF 2-E INTEGRALS   49314320.
  @MOLECU-I, TWO ELECTRON INTEGRALS (CPU/WALL):      148.17/      21.79 SECONDS.
 @CHECKOUT-I, Total execution time (CPU/WALL):      148.24/      21.87 seconds.

Running with 14 threads/proc

--executable xvmol finished with status     0 in       21.90 seconds (walltime).
 --invoking executable--
/nfs/workspaces/public/cfour_mpi/bin/xvmol2ja
 @GETMEM-I,  Allocated    3814 MB of main memory.
 @CHECKOUT-I, Total execution time (CPU/WALL):        0.14/       0.03 seconds.
--executable xvmol2ja finished with status     0 in        0.06 seconds (walltime).
 --invoking executable--
/nfs/workspaces/public/cfour_mpi/bin/xvprop
 @GETMEM-I,  Allocated    3814 MB of main memory.
   Property integrals will be calculated.
    --------------------------------------------------------------
                                   Property evaluated at 
    Property type                X             Y             Z
    --------------------------------------------------------------
    Dipole moment               ----          ----          ----  
    Quadrupole moment           ----          ----          ----  
    Octopole moment             ----          ----          ----  
    Relativisitic corr.         ----          ----          ----  
    Second moment            0.0000000     0.0000000     0.0000000
    Electron density         0.0000000     0.0000000     1.2181677
    Electron density         0.0000000     0.0000000    -0.9139162
    Field gradient           0.0000000     0.0000000     1.2181677
    Field gradient           0.0000000     0.0000000    -0.9139162
    Potential                0.0000000     0.0000000     1.2181677
    Potential                0.0000000     0.0000000    -0.9139162
    --------------------------------------------------------------
 @CHECKOUT-I, Total execution time (CPU/WALL):        1.29/       1.30 seconds.
--executable xvprop finished with status     0 in        1.31 seconds (walltime).
 --invoking executable--
/nfs/workspaces/public/cfour_mpi/bin/xvscf
  There are  218 functions in the AO basis.

  There are 4 irreducible representations.

       Irrep        # of functions
         1                 86
         2                 52
         3                 52
         4                 28


  Parameters for SCF calculation: 
        SCF reference function:  RHF  
  Maximum number of iterations:  150
     Full symmetry point group: CXv 
     Computational point group: C2v 
        Initial density matrix: MOREAD                 
     SCF convergence tolerance: 10**(-10)
  DIIS convergence acceleration:  ON
          Latest start for DIIS:   8
                     DIIS order:   6

  Memory information:    2523578 words required.
  Fock matrices are constructed from AO integral file.
 @GETMEM-I,  Allocated      19 MB of main memory.
  Initialization and symmetry analysis required      0.002 seconds.

  Adding electric field perturbation to one-electron Hamiltonian.
  Field direction     : Z
  Field strength      :  0.0000010 a.u.

  @INITGES-I, Occupancies from core Hamiltonian:

          Alpha population by irrep:   5    1    1    0
           Beta population by irrep:   5    1    1    0


 total no. of electrons in initial guess :  0.000000000000000E+000
  --------------------------------------------------------------------
  Iteration         Total Energy            Largest Density Difference
  --------------------------------------------------------------------
       0            22.513184846108427              0.0000000000D+00
   current occupation vector 
     5  1  1  0
     5  1  1  0
       1           -91.791886066918821              0.1871593683D+02
   current occupation vector 
     5  1  1  0
     5  1  1  0
       2           -96.468990849382976              0.2293691007D+02
   current occupation vector 
     5  1  1  0
     5  1  1  0
       3          -103.358129375209387              0.2292610459D+02
   current occupation vector 
     5  1  1  0
     5  1  1  0
       4          -100.409152528983128              0.7592240244D+01
   current occupation vector 
     5  1  1  0
     5  1  1  0
       5          -103.462925609742413              0.7398225340D+01
   current occupation vector 
     5  1  1  0
     5  1  1  0
       6          -100.516403600377046              0.5809796026D+01
   current occupation vector 
     5  1  1  0
     5  1  1  0
       7          -103.254593511859113              0.5595456070D+01
   current occupation vector 
     5  1  1  0
     5  1  1  0
       8          -100.265563619145794              0.5580350007D+01
   current occupation vector 
     5  1  1  0
     5  1  1  0
       9          -110.829578323381469              0.4184387979D+01
   current occupation vector 
     5  1  1  0
     5  1  1  0
      10          -112.305301348635055              0.9126490770D+00
   current occupation vector 
     5  1  1  0
     5  1  1  0
      11          -112.774880952398945              0.4956251777D+00
   current occupation vector 
     5  1  1  0
     5  1  1  0
      12          -112.788780707723760              0.1043256621D+00
   current occupation vector 
     5  1  1  0
     5  1  1  0
      13          -112.789197608846052              0.2304958382D-01
   current occupation vector 
     5  1  1  0
     5  1  1  0
      14          -112.789277985065411              0.1360856840D-01
   current occupation vector 
     5  1  1  0
     5  1  1  0
      15          -112.789281399270777              0.3687050850D-02
   current occupation vector 
     5  1  1  0
     5  1  1  0
      16          -112.789281437242295              0.3280655232D-03
   current occupation vector 
     5  1  1  0
     5  1  1  0
      17          -112.789281438186975              0.3630567858D-04
   current occupation vector 
     5  1  1  0
     5  1  1  0
      18          -112.789281438214715              0.6213724994D-05
   current occupation vector 
     5  1  1  0
     5  1  1  0
      19          -112.789281438214857              0.1185045799D-05
   current occupation vector 
     5  1  1  0
     5  1  1  0
      20          -112.789281438214488              0.2063670732D-06
   current occupation vector 
     5  1  1  0
     5  1  1  0
      21          -112.789281438216506              0.3349546773D-07
   current occupation vector 
     5  1  1  0
     5  1  1  0
      22          -112.789281438216818              0.8375077964D-08
   current occupation vector 
     5  1  1  0
     5  1  1  0
      23          -112.789281438215937              0.4710505763D-08
   current occupation vector 
     5  1  1  0
     5  1  1  0
      24          -112.789281438215397              0.2153807965D-09
   current occupation vector 
     5  1  1  0
     5  1  1  0
      25          -112.789281438214971              0.2569000290D-09
   current occupation vector 
     5  1  1  0
     5  1  1  0
      26          -112.789281438214999              0.3598695231D-09
   current occupation vector 
     5  1  1  0
     5  1  1  0
      27          -112.789281438215596              0.7144823622D-09
   current occupation vector 
     5  1  1  0
     5  1  1  0
      28          -112.789281438216449              0.1333386734D-09
   current occupation vector 
     5  1  1  0
     5  1  1  0

  SCF has converged.

 Density matrix saved to file den.dat
 total electron number:   14.0000000000003     
     E(SCF)=      -112.789281438215028              0.3124181469D-10

  Eigenvector printing suppressed.

 @PUTMOS-I, Writing converged MOs to NEWMOS. 
 @PUTMOS-I, Symmetry   1 Full Blocks 21 Partial Blocksize   2
 @PUTMOS-I, Symmetry   2 Full Blocks 13 Partial Blocksize   0
 @PUTMOS-I, Symmetry   3 Full Blocks 13 Partial Blocksize   0
 @PUTMOS-I, Symmetry   4 Full Blocks  7 Partial Blocksize   0
 @PUTFOCK-I, Writing converged Fock matrix to NEWFOCK. 
 @PUTFOCK-I, Symmetry   1 Full Blocks 21 Partial Blocksize   2
 @PUTFOCK-I, Symmetry   2 Full Blocks 13 Partial Blocksize   0
 @PUTFOCK-I, Symmetry   3 Full Blocks 13 Partial Blocksize   0
 @PUTFOCK-I, Symmetry   4 Full Blocks  7 Partial Blocksize   0


 
  ORBITAL EIGENVALUES (ALPHA)  (1H = 27.2113834 eV)

       MO #        E(hartree)               E(eV)           FULLSYM    COMPSYM
       ----   --------------------   --------------------   -------   ---------
    1     1         -20.6652455051        -562.3299184937     SG+        A1 (1)
    2     2         -11.3603691336        -309.1313600589     SG+        A1 (1)
    3     3          -1.5217414637         -41.4086904032     SG+        A1 (1)
    4     4          -0.8046429063         -21.8954466240     SG+        A1 (1)
    5   139          -0.6403540379         -17.4249192359      PI        B2 (3)
    6    87          -0.6403540379         -17.4249192359      PI        B1 (2)
    7     5          -0.5549540334         -15.1010669734     SG+        A1 (1)
  +++++++++++++++++++++++++++++++++++++++++++++++++++++++++++++++++++++++++++++
    8     6           0.0600909458           1.6351577649     SG+        A1 (1)
    9   140           0.0627948995           1.7087360862      PI        B2 (3)
   10    88           0.0627948995           1.7087360862      PI        B1 (2)
   11     7           0.0746888781           2.0323876989     SG+        A1 (1)
   12   141           0.1411521273           3.8409446548      PI        B2 (3)
   13    89           0.1411521273           3.8409446548      PI        B1 (2)
   14     8           0.1563157844           4.2535687396     SG+        A1 (1)
   15   142           0.1668117011           4.5391771533      PI        B2 (3)
   16    90           0.1668117011           4.5391771533      PI        B1 (2)
   17     9           0.2278961545           6.2013696351      DE        A1 (1)
   18   191           0.2278961545           6.2013696351      DE        A2 (4)
   19    10           0.2280250327           6.2048765887     SG+        A1 (1)
   20    11           0.3012609030           8.1977259346     SG+        A1 (1)
   21   143           0.3207451379           8.7279189199      PI        B2 (3)
   22    91           0.3207451379           8.7279189199      PI        B1 (2)
   23    12           0.3917591525          10.6603084986     SG+        A1 (1)
   24   144           0.3958132447          10.7706259566      PI        B2 (3)
   25    92           0.3958132447          10.7706259566      PI        B1 (2)
   26    13           0.5083715864          13.8334941482     SG+        A1 (1)
   27   192           0.5345926909          14.5470066752      DE        A2 (4)
   28    14           0.5345926909          14.5470066752      DE        A1 (1)
   29   145           0.6231210043          16.9559845523      PI        B2 (3)
   30    93           0.6231210043          16.9559845523      PI        B1 (2)
   31    15           0.6451407470          17.5551722149     SG+        A1 (1)
   32    94           0.7487808929          20.3753639599      PH        B1 (2)
   33   146           0.7487808929          20.3753639599      PH        B2 (3)
   34    16           0.7686033445          20.9147602884      DE        A1 (1)
   35   193           0.7686033445          20.9147602885      DE        A2 (4)
   36    17           0.7799377027          21.2231838565     SG+        A1 (1)
   37   147           0.8234510136          22.4072412432      PI        B2 (3)
   38    95           0.8234510136          22.4072412432      PI        B1 (2)
   39    18           0.8723587970          23.7380896878     SG+        A1 (1)
   40   148           0.8810564699          23.9747654002      PI        B2 (3)
   41    96           0.8810564699          23.9747654003      PI        B1 (2)
   42    19           0.8911374284          24.2490822259      DE        A1 (1)
   43   194           0.8911374284          24.2490822259      DE        A2 (4)
   44    20           0.9105581328          24.7775464589     SG+        A1 (1)
   45   149           1.0769085209          29.3041706501      PI        B2 (3)
   46    97           1.0769085209          29.3041706501      PI        B1 (2)
   47    21           1.1958328158          32.5402652337     SG+        A1 (1)
   48   150           1.4475528768          39.3899163223      PH        B2 (3)
   49    98           1.4475528768          39.3899163223      PH        B1 (2)
   50    22           1.4742924164          40.1175361859     SG+        A1 (1)
   51    23           1.5176120786          41.2963241244      DE        A1 (1)
   52   195           1.5176120786          41.2963241244      DE        A2 (4)
   53   151           1.5537231808          42.2789571706      PI        B2 (3)
   54    99           1.5537231808          42.2789571706      PI        B1 (2)
   55    24           1.6672786459          45.3689584682     SG+        A1 (1)
   56    25           1.7690344339          48.1378742281      DE        A1 (1)
   57   196           1.7690344339          48.1378742282      DE        A2 (4)
   58    26           1.7707270504          48.1839326651     SG+        A1 (1)
   59   152           1.8056618159          49.1345559634      PI        B2 (3)
   60   100           1.8056618159          49.1345559634      PI        B1 (2)
   61   153           1.9685929233          53.5681367936      PI        B2 (3)
   62   101           1.9685929233          53.5681367937      PI        B1 (2)
   63   197           2.1056539753          57.2977576300      PI        A2 (4)
   64    27           2.1056539753          57.2977576300      PI        A1 (1)
   65    28           2.1354198419          58.1077280380     SG+        A1 (1)
   66    29           2.1960127027          59.7565436052      DE        A1 (1)
   67   198           2.1960127027          59.7565436052      DE        A2 (4)
   68   154           2.2519124486          61.2776530214      PH        B2 (3)
   69   102           2.2519124486          61.2776530214      PH        B1 (2)
   70    30           2.3157702725          63.0153127503     SG+        A1 (1)
   71   155           2.3250434261          63.2676480899      PI        B2 (3)
   72   103           2.3250434261          63.2676480899      PI        B1 (2)
   73   104           2.3632305839          64.3067734816      PH        B1 (2)
   74   156           2.3632305839          64.3067734816      PH        B2 (3)
   75    31           2.3644820745          64.3408282723      DE        A1 (1)
   76   199           2.3644820745          64.3408282723      DE        A2 (4)
   77    32           2.4867455930          67.6677877506     SG+        A1 (1)
   78   157           2.5980007019          70.6951931724      PI        B2 (3)
   79   105           2.5980007019          70.6951931724      PI        B1 (2)
   80   158           2.8323489702          77.0721337516      PI        B2 (3)
   81   106           2.8323489702          77.0721337516      PI        B1 (2)
   82    33           2.9426200608          80.0727626756     SG+        A1 (1)
   83    34           3.0094088871          81.8901790350      DE        A1 (1)
   84   200           3.0094088871          81.8901790352      DE        A2 (4)
   85    35           3.4750882776          94.5619594696     SG+        A1 (1)
   86    36           3.7237149018         101.3274338650      PI        A1 (1)
   87   201           3.7237149018         101.3274338650      PI        A2 (4)
   88   159           3.7508827832         102.0667095018      PI        B2 (3)
   89   107           3.7508827832         102.0667095019      PI        B1 (2)
   90    37           3.9472786755         107.4109134245     SG+        A1 (1)
   91   108           4.0827078302         111.0961280765      PH        B1 (2)
   92   160           4.0827078302         111.0961280765      PH        B2 (3)
   93    38           4.1765198550         113.6488830515      DE        A1 (1)
   94   202           4.1765198550         113.6488830515      DE        A2 (4)
   95   161           4.2105672335         114.5753593220      PI        B2 (3)
   96   109           4.2105672335         114.5753593220      PI        B1 (2)
   97    39           4.2723136292         116.2555641682     SG+        A1 (1)
   98   162           4.2841527477         116.5777229625      PH        B2 (3)
   99   110           4.2841527477         116.5777229625      PH        B1 (2)
  100    40           4.3818853025         119.2371609809      DE        A1 (1)
  101   203           4.3818853025         119.2371609809      DE        A2 (4)
  102    41           4.5353980127         123.4144541962     SG+        A1 (1)
  103   163           4.7638253984         129.6302793655      PI        B2 (3)
  104   111           4.7638253984         129.6302793656      PI        B1 (2)
  105    42           5.0138251215         136.4331176829     SG+        A1 (1)
  106   112           5.1306230510         139.6113509215      PI        B1 (2)
  107   164           5.1306230510         139.6113509215      PI        B2 (3)
  108    43           5.1524142213         140.2043188116      DE        A1 (1)
  109   204           5.1524142213         140.2043188116      DE        A2 (4)
  110   165           5.8165344902         158.2759500721      PI        B2 (3)
  111   113           5.8165344902         158.2759500722      PI        B1 (2)
  112    44           5.8538603562         159.2916385213     SG+        A1 (1)
  113    45           5.9010634707         160.5761005679      PI        A1 (1)
  114   205           5.9010634707         160.5761005679      PI        A2 (4)
  115   166           6.1365256277         166.9833515995      PH        B2 (3)
  116   114           6.1365256277         166.9833515995      PH        B1 (2)
  117    46           6.2326333935         169.5985768634     SG+        A1 (1)
  118    47           6.3058489393         171.5908731501      DE        A1 (1)
  119   206           6.3058489393         171.5908731501      DE        A2 (4)
  120   167           6.3285345470         172.2081799199      PI        B2 (3)
  121   115           6.3285345470         172.2081799199      PI        B1 (2)
  122   168           6.4435787709         175.3386924044      PH        B2 (3)
  123   116           6.4435787709         175.3386924044      PH        B1 (2)
  124   207           6.5907481717         179.3433753931      DE        A2 (4)
  125    48           6.5907481717         179.3433753932      DE        A1 (1)
  126    49           7.0560574603         192.0050848455     SG+        A1 (1)
  127   208           7.3513533918         200.0404956530      DE        A2 (4)
  128    50           7.3513533918         200.0404956530      DE        A1 (1)
  129   169           7.4941441268         203.9260290891      PI        B2 (3)
  130   117           7.4941441268         203.9260290892      PI        B1 (2)
  131    51           7.7957718250         212.1337360278     SG+        A1 (1)
  132    52           8.2568988678         224.6816407857     SG+        A1 (1)
  133   170           8.4904978350         231.0381918447      PI        B2 (3)
  134   118           8.4904978350         231.0381918448      PI        B1 (2)
  135   119          10.1227096589         275.4529335766      PI        B1 (2)
  136   171          10.1227096590         275.4529335768      PI        B2 (3)
  137    53          10.5212263801         286.2971248668     SG+        A1 (1)
  138    54          10.6018701883         288.4915544496      PI        A1 (1)
  139   209          10.6018701883         288.4915544496      PI        A2 (4)
  140   172          10.8826099320         296.1308712511      PH        B2 (3)
  141   120          10.8826099320         296.1308712511      PH        B1 (2)
  142    55          11.1356271055         303.0158185681      DE        A1 (1)
  143   210          11.1356271055         303.0158185681      DE        A2 (4)
  144    56          11.1576857372         303.6160644528     SG+        A1 (1)
  145   173          11.3739340929         309.5004813684      PI        B2 (3)
  146   121          11.3739340929         309.5004813684      PI        B1 (2)
  147    57          11.6241348783         316.3087908679     SG+        A1 (1)
  148   174          11.8549530738         322.5896732802      PH        B2 (3)
  149   122          11.8549530738         322.5896732802      PH        B1 (2)
  150   211          12.2931597859         334.5138841327      DE        A2 (4)
  151    58          12.2931597859         334.5138841328      DE        A1 (1)
  152   123          12.6475808683         344.1581720886      PI        B1 (2)
  153   175          12.6475808683         344.1581720886      PI        B2 (3)
  154    59          12.8787616330         350.4489205135      DE        A1 (1)
  155   212          12.8787616330         350.4489205136      DE        A2 (4)
  156    60          13.3187362593         362.4212387541     SG+        A1 (1)
  157   124          14.1879213030         386.0729662239      PI        B1 (2)
  158   176          14.1879213030         386.0729662240      PI        B2 (3)
  159    61          15.6009291606         424.5228647853     SG+        A1 (1)
  160    62          18.0448257122         491.0246708417     SG+        A1 (1)
  161   125          19.4160458031         528.3374664590      PI        B1 (2)
  162   177          19.4160458031         528.3374664591      PI        B2 (3)
  163    63          20.6807697876         562.7523556980     SG+        A1 (1)
  164   213          26.5392004087         722.1683574513      DE        A2 (4)
  165    64          26.5392004087         722.1683574514      DE        A1 (1)
  166   178          27.0291800689         735.5013818427      PI        B2 (3)
  167   126          27.0291800689         735.5013818427      PI        B1 (2)
  168    65          28.2467886979         768.6341970769     SG+        A1 (1)
  169   127          33.7976511022         919.6808421617      PI        B1 (2)
  170   179          33.7976511023         919.6808421629      PI        B2 (3)
  171    66          35.0154205154         952.8180325577     SG+        A1 (1)
  172    67          36.8474133060        1002.6690907688     SG+        A1 (1)
  173    68          47.1236022783        1282.2984087847      DE        A1 (1)
  174   214          47.1236022783        1282.2984087848      DE        A2 (4)
  175   128          47.7278538647        1298.7409303721      PI        B1 (2)
  176   180          47.7278538647        1298.7409303721      PI        B2 (3)
  177    69          48.5922250666        1322.2616665475     SG+        A1 (1)
  178    70          64.2381068733        1748.0077550192     SG+        A1 (1)
  179   129          66.8592500771        1819.3326876835      PI        B1 (2)
  180   181          66.8592500771        1819.3326876837      PI        B2 (3)
  181    71          67.8349873384        1845.8838483984     SG+        A1 (1)
  182   130          98.6770225440        2685.1382932145      PH        B1 (2)
  183   182          98.6770225440        2685.1382932145      PH        B2 (3)
  184    72          98.6999527584        2685.7622560706      DE        A1 (1)
  185   215          98.6999527584        2685.7622560706      DE        A2 (4)
  186   131          98.7691854932        2687.6461745608      PI        B1 (2)
  187   183          98.7691854932        2687.6461745608      PI        B2 (3)
  188    73          98.7804761686        2687.9534094575     SG+        A1 (1)
  189   184         103.2842922778        2810.5084763684      PH        B2 (3)
  190   132         103.2842922778        2810.5084763684      PH        B1 (2)
  191    74         103.3352949849        2811.8963305865      DE        A1 (1)
  192   216         103.3352949849        2811.8963305870      DE        A2 (4)
  193   133         103.3629587732        2812.6491005365      PI        B1 (2)
  194   185         103.3629587732        2812.6491005366      PI        B2 (3)
  195    75         103.4260973684        2814.3671890576     SG+        A1 (1)
  196    76         115.1913651486        3134.5164014281      DE        A1 (1)
  197   217         115.1913651486        3134.5164014281      DE        A2 (4)
  198   186         115.4304811156        3141.0230776817      PI        B2 (3)
  199   134         115.4304811156        3141.0230776817      PI        B1 (2)
  200    77         116.0483731454        3157.8367746055     SG+        A1 (1)
  201   135         117.0461036359        3184.9864015129      PI        B1 (2)
  202   187         117.0461036359        3184.9864015138      PI        B2 (3)
  203    78         118.0848929668        3213.2532962679     SG+        A1 (1)
  204    79         122.9347955778        3345.2258556695     SG+        A1 (1)
  205    80         198.5801814763        5403.6414537932      DE        A1 (1)
  206   218         198.5801814763        5403.6414537933      DE        A2 (4)
  207   188         198.9077023103        5412.5537487789      PI        B2 (3)
  208   136         198.9077023103        5412.5537487790      PI        B1 (2)
  209    81         199.3409484796        5424.3429763992     SG+        A1 (1)
  210    82         216.7155429764        5897.1297286695     SG+        A1 (1)
  211   137         225.2709257238        6129.9335287445      PI        B1 (2)
  212   189         225.2709257239        6129.9335287447      PI        B2 (3)
  213    83         226.0695999691        6151.6665598431     SG+        A1 (1)
  214   138         395.5041246039       10762.2143708783      PI        B1 (2)
  215   190         395.5041246039       10762.2143708789      PI        B2 (3)
  216    84         396.3604093403       10785.5150631406     SG+        A1 (1)
  217    85         509.4652058573       13863.2530455424     SG+        A1 (1)
  218    86         895.5470051076       24369.0729087058     SG+        A1 (1)


  VSCF finished.

 @CHECKOUT-I, Total execution time (CPU/WALL):       48.53/       8.38 seconds.
--executable xvscf finished with status     0 in        8.41 seconds (walltime).
 --invoking executable--
/nfs/workspaces/public/cfour_mpi/bin/xvtran
 @GETMEM-I,  Allocated    3814 MB of main memory.
  Full RHF integral transformation
  Transformation of IIII integrals :
  1 pass through the AO integral file was required.
     4595968 AO integrals were read.
     8822928 MO integrals were written to HF2.
  Transformation of IIJJ integrals :
  1 pass through the AO integral file was required.
    10395446 AO integrals were read.
    14631579 MO integrals were written to HF2.
  Transformation of IJIJ integrals :
  1 pass through the AO integral file was required.
    19727067 AO integrals were read.
    27491560 MO integrals were written to HF2.
  Transformation of IJKL integrals :
  1 pass through the AO integral file was required.
    14595839 AO integrals were read.
    18557902 MO integrals were written to HF2.
  Summary of active molecular orbitals: 
------------------------------------------------------------------------
 
  Index      Eigenvalue    Symmetry    Index      Eigenvalue    Symmetry
------------------------------------------------------------------------
     1       -20.6652455        1       110         4.2105672        2
     2       -11.3603691        1       111         4.2841527        2
     3        -1.5217415        1       112         4.7638254        2
     4        -0.8046429        1       113         5.1306231        2
     5        -0.5549540        1       114         5.8165345        2
     6        -0.6403540        2       115         6.1365256        2
     7        -0.6403540        3       116         6.3285345        2
     8         0.0600909        1       117         6.4435788        2
     9         0.0746889        1       118         7.4941441        2
    10         0.1563158        1       119         8.4904978        2
    11         0.2278962        1       120        10.1227097        2
    12         0.2280250        1       121        10.8826099        2
    13         0.3012609        1       122        11.3739341        2
    14         0.3917592        1       123        11.8549531        2
    15         0.5083716        1       124        12.6475809        2
    16         0.5345927        1       125        14.1879213        2
    17         0.6451407        1       126        19.4160458        2
    18         0.7686033        1       127        27.0291801        2
    19         0.7799377        1       128        33.7976511        2
    20         0.8723588        1       129        47.7278539        2
    21         0.8911374        1       130        66.8592501        2
    22         0.9105581        1       131        98.6770225        2
    23         1.1958328        1       132        98.7691855        2
    24         1.4742924        1       133       103.2842923        2
    25         1.5176121        1       134       103.3629588        2
    26         1.6672786        1       135       115.4304811        2
    27         1.7690344        1       136       117.0461036        2
    28         1.7707271        1       137       198.9077023        2
    29         2.1056540        1       138       225.2709257        2
    30         2.1354198        1       139       395.5041246        2
    31         2.1960127        1       140         0.0627949        3
    32         2.3157703        1       141         0.1411521        3
    33         2.3644821        1       142         0.1668117        3
    34         2.4867456        1       143         0.3207451        3
    35         2.9426201        1       144         0.3958132        3
    36         3.0094089        1       145         0.6231210        3
    37         3.4750883        1       146         0.7487809        3
    38         3.7237149        1       147         0.8234510        3
    39         3.9472787        1       148         0.8810565        3
    40         4.1765199        1       149         1.0769085        3
    41         4.2723136        1       150         1.4475529        3
    42         4.3818853        1       151         1.5537232        3
    43         4.5353980        1       152         1.8056618        3
    44         5.0138251        1       153         1.9685929        3
    45         5.1524142        1       154         2.2519124        3
    46         5.8538604        1       155         2.3250434        3
    47         5.9010635        1       156         2.3632306        3
    48         6.2326334        1       157         2.5980007        3
    49         6.3058489        1       158         2.8323490        3
    50         6.5907482        1       159         3.7508828        3
    51         7.0560575        1       160         4.0827078        3
    52         7.3513534        1       161         4.2105672        3
    53         7.7957718        1       162         4.2841527        3
    54         8.2568989        1       163         4.7638254        3
    55        10.5212264        1       164         5.1306231        3
    56        10.6018702        1       165         5.8165345        3
    57        11.1356271        1       166         6.1365256        3
    58        11.1576857        1       167         6.3285345        3
    59        11.6241349        1       168         6.4435788        3
    60        12.2931598        1       169         7.4941441        3
    61        12.8787616        1       170         8.4904978        3
    62        13.3187363        1       171        10.1227097        3
    63        15.6009292        1       172        10.8826099        3
    64        18.0448257        1       173        11.3739341        3
    65        20.6807698        1       174        11.8549531        3
    66        26.5392004        1       175        12.6475809        3
    67        28.2467887        1       176        14.1879213        3
    68        35.0154205        1       177        19.4160458        3
    69        36.8474133        1       178        27.0291801        3
    70        47.1236023        1       179        33.7976511        3
    71        48.5922251        1       180        47.7278539        3
    72        64.2381069        1       181        66.8592501        3
    73        67.8349873        1       182        98.6770225        3
    74        98.6999528        1       183        98.7691855        3
    75        98.7804762        1       184       103.2842923        3
    76       103.3352950        1       185       103.3629588        3
    77       103.4260974        1       186       115.4304811        3
    78       115.1913651        1       187       117.0461036        3
    79       116.0483731        1       188       198.9077023        3
    80       118.0848930        1       189       225.2709257        3
    81       122.9347956        1       190       395.5041246        3
    82       198.5801815        1       191         0.2278962        4
    83       199.3409485        1       192         0.5345927        4
    84       216.7155430        1       193         0.7686033        4
    85       226.0696000        1       194         0.8911374        4
    86       396.3604093        1       195         1.5176121        4
    87       509.4652059        1       196         1.7690344        4
    88       895.5470051        1       197         2.1056540        4
    89         0.0627949        2       198         2.1960127        4
    90         0.1411521        2       199         2.3644821        4
    91         0.1668117        2       200         3.0094089        4
    92         0.3207451        2       201         3.7237149        4
    93         0.3958132        2       202         4.1765199        4
    94         0.6231210        2       203         4.3818853        4
    95         0.7487809        2       204         5.1524142        4
    96         0.8234510        2       205         5.9010635        4
    97         0.8810565        2       206         6.3058489        4
    98         1.0769085        2       207         6.5907482        4
    99         1.4475529        2       208         7.3513534        4
   100         1.5537232        2       209        10.6018702        4
   101         1.8056618        2       210        11.1356271        4
   102         1.9685929        2       211        12.2931598        4
   103         2.2519124        2       212        12.8787616        4
   104         2.3250434        2       213        26.5392004        4
   105         2.3632306        2       214        47.1236023        4
   106         2.5980007        2       215        98.6999528        4
   107         2.8323490        2       216       103.3352950        4
   108         3.7508828        2       217       115.1913651        4
   109         4.0827078        2       218       198.5801815        4
------------------------------------------------------------------------
  -20.6652455050732       -11.3603691335610       -1.52174146365417     
 -0.804642906321600      -0.554954033443881      -0.640354037857604     
 -0.640354037857608       6.009094579605116E-002  7.468887814554880E-002
  0.156315784358429       0.227896154484254       0.228025032665710     
  0.301260902988118       0.391759152481209       0.508371586438694     
  0.534592690910397       0.645140747047145       0.768603344453556     
  0.779937702709049       0.872358797010634       0.891137428384248     
  0.910558132773635        1.19583281582607        1.47429241638217     
   1.51761207864029        1.66727864589823        1.76903443388057     
   1.77072705039554        2.10565397531471        2.13541984190456     
   2.19601270272726        2.31577027246123        2.36448207452437     
   2.48674559304342        2.94262006082497        3.00940888712704     
   3.47508827756152        3.72371490179406        3.94727867545714     
   4.17651985497664        4.27231362916289        4.38188530249026     
   4.53539801273658        5.01382512154532        5.15241422130675     
   5.85386035615091        5.90106347066215        6.23263339354569     
   6.30584893931090        6.59074817170708        7.05605746033017     
   7.35135339179441        7.79577182495525        8.25689886776298     
   10.5212263800881        10.6018701882531        11.1356271055319     
   11.1576857372416        11.6241348783441        12.2931597859433     
   12.8787616330271        13.3187362592563        15.6009291606000     
   18.0448257122330        20.6807697876191        26.5392004087322     
   28.2467886978850        35.0154205154349        36.8474133060348     
   47.1236022783263        48.5922250666409        64.2381068732884     
   67.8349873383669        98.6999527583942        98.7804761685674     
   103.335294984911        103.426097368413        115.191365148606     
   116.048373145391        118.084892966811        122.934795577848     
   198.580181476299        199.340948479642        216.715542976382     
   226.069599969075        396.360409340327        509.465205857280     
   895.547005107640       6.279489951238200E-002  0.141152127340152     
  0.166811701066566       0.320745137855945       0.395813244710796     
  0.623121004289728       0.748780892921132       0.823451013635967     
  0.881056469929016        1.07690852094435        1.44755287679550     
   1.55372318081387        1.80566181590639        1.96859292327362     
   2.25191244857498        2.32504342612443        2.36323058391694     
   2.59800070188298        2.83234897023152        3.75088278319328     
   4.08270783015553        4.21056723348932        4.28415274772343     
   4.76382539836537        5.13062305099471        5.81653449020127     
   6.13652562770887        6.32853454704968        6.44357877094793     
   7.49414412679777        8.49049783499138        10.1227096589497     
   10.8826099319555        11.3739340929076        11.8549530738013     
   12.6475808682556        14.1879213029626        19.4160458030599     
   27.0291800689075        33.7976511022109        47.7278538647198     
   66.8592500770662        98.6770225439715        98.7691854931864     
   103.284292277784        103.362958773222        115.430481115551     
   117.046103635909        198.907702310314        225.270925723846     
   395.504124603907       6.279489951237056E-002  0.141152127340144     
  0.166811701066471       0.320745137855781       0.395813244710393     
  0.623121004289639       0.748780892921145       0.823451013635737     
  0.881056469927421        1.07690852094400        1.44755287679541     
   1.55372318081366        1.80566181590579        1.96859292326933     
   2.25191244857498        2.32504342612437        2.36323058391695     
   2.59800070188277        2.83234897023121        3.75088278318874     
   4.08270783015554        4.21056723348921        4.28415274772341     
   4.76382539836155        5.13062305099476        5.81653449019927     
   6.13652562770885        6.32853454704931        6.44357877094792     
   7.49414412679703        8.49049783498755        10.1227096589572     
   10.8826099319554        11.3739340929071        11.8549530738013     
   12.6475808682558        14.1879213029638        19.4160458030615     
   27.0291800689066        33.7976511022542        47.7278538647208     
   66.8592500770717        98.6770225439718        98.7691854931868     
   103.284292277784        103.362958773223        115.430481115550     
   117.046103635943        198.907702310311        225.270925723853     
   395.504124603928       0.227896154484271       0.534592690910245     
  0.768603344453633       0.891137428385001        1.51761207864040     
   1.76903443388399        2.10565397531468        2.19601270272747     
   2.36448207452452        3.00940888713450        3.72371490179409     
   4.17651985497773        4.38188530249169        5.15241422130706     
   5.90106347066216        6.30584893931146        6.59074817170539     
   7.35135339179313        10.6018701882533        11.1356271055337     
   12.2931597859402        12.8787616330293        26.5392004087279     
   47.1236022783301        98.6999527583944        103.335294984930     
   115.191365148607        198.580181476304     
 @CHECKOUT-I, Total execution time (CPU/WALL):       33.79/      19.75 seconds.
--executable xvtran finished with status     0 in       19.77 seconds (walltime).
 --invoking executable--
/nfs/workspaces/public/cfour_mpi/bin/xintprc
 @GETMEM-I,  Allocated    3814 MB of main memory.
  Processing integrals for CCSD calculation.
  @GMOIAA-I, Processing MO integrals for spin case AA.
  @GMOIAA-I, Generation of integral list completed.
                      TYPE                NUMBER
                      ----               --------
                      PPPP              61059157
                      PPPH               7994099
                      PPHH                274624
                      PHPH                163637
                      PHHH                 12268
                      HHHH                   184

                     TOTAL              69503969

  @FORMT2-I, Second-order MP correlation energies:
            ------------------------------------------------
            E(SCF)                  =   -112.789281438215 a.u.
            E2(AA)                  =     -0.053092256388 a.u.
            E2(AB)                  =     -0.389416464808 a.u.
            E2(TOT)                 =     -0.495600977584 a.u.
            Total MP2 energy        =   -113.284882415799 a.u.
            ------------------------------------------------
   Largest T2 amplitudes for spin case AB:
       _       _                 _       _                 _       _
   i   j   a   b             i   j   a   b             i   j   a   b
-----------------------------------------------------------------------------
[  6   6  90  90]-0.03396 [  7   7 141 141]-0.03396 [  7   6 141  90]-0.02729
[  6   7  90 141]-0.02729 [  5   5  90  90]-0.02694 [  5   5 141 141]-0.02694
[  7   7 142 141]-0.02096 [  7   7 141 142]-0.02096 [  6   6  91  90]-0.02096
[  6   6  90  91]-0.02096 [  4   4  23  23]-0.01716 [  7   6 142  90]-0.01695
[  6   7  90 142]-0.01695 [  7   6 141  91]-0.01695 [  6   7  91 141]-0.01695
-----------------------------------------------------------------------------
   Norm of T2AB vector (   580605 symmetry allowed elements):  0.2835273588.
-----------------------------------------------------------------------------
 @CHECKOUT-I, Total execution time (CPU/WALL):        7.84/      12.60 seconds.
--executable xintprc finished with status     0 in       12.64 seconds (walltime).
  calling xvcc 
 --invoking executable--
/nfs/workspaces/public/cfour_mpi/bin/xvcc
 @GETMEM-I,  Allocated    3814 MB of main memory.
   CCSD energy will be calculated.
   The total correlation energy is -0.495600977584 a.u.
   The total correlation energy is -0.480569440441 a.u.
  Convergence information after     1 iterations: 
  Largest element of residual vector :  0.23827181E-01.
  Largest element of DIIS residual   :  0.23827181E-01.
   The total correlation energy is -0.496729441488 a.u.
  Convergence information after     2 iterations: 
  Largest element of residual vector : -0.54451506E-02.
  Largest element of DIIS residual   : -0.41069978E-02.
   The total correlation energy is -0.494845780806 a.u.
  Convergence information after     3 iterations: 
  Largest element of residual vector :  0.41313896E-02.
  Largest element of DIIS residual   :  0.24421724E-02.
   The total correlation energy is -0.496259558019 a.u.
  Convergence information after     4 iterations: 
  Largest element of residual vector :  0.53131475E-03.
  Largest element of DIIS residual   :  0.38030725E-03.
   The total correlation energy is -0.496496351540 a.u.
  Convergence information after     5 iterations: 
  Largest element of residual vector :  0.26323104E-03.
  Largest element of DIIS residual   :  0.58013759E-04.
   The total correlation energy is -0.496485512946 a.u.
  Convergence information after     6 iterations: 
  Largest element of residual vector :  0.52373018E-04.
  Largest element of DIIS residual   :  0.24432886E-04.
   The total correlation energy is -0.496489160704 a.u.
  Convergence information after     7 iterations: 
  Largest element of residual vector :  0.15980296E-04.
  Largest element of DIIS residual   :  0.59329789E-05.
   The total correlation energy is -0.496489850146 a.u.
  Convergence information after     8 iterations: 
  Largest element of residual vector :  0.62459357E-05.
  Largest element of DIIS residual   :  0.31147640E-05.
   The total correlation energy is -0.496490067498 a.u.
  Convergence information after     9 iterations: 
  Largest element of residual vector :  0.97723084E-06.
  Largest element of DIIS residual   :  0.72289939E-06.
   The total correlation energy is -0.496490298983 a.u.
  Convergence information after    10 iterations: 
  Largest element of residual vector :  0.63010921E-06.
  Largest element of DIIS residual   :  0.31194326E-06.
   The total correlation energy is -0.496490334864 a.u.
  Convergence information after    11 iterations: 
  Largest element of residual vector :  0.10183496E-06.
  Largest element of DIIS residual   :  0.89125872E-07.
   The total correlation energy is -0.496490365357 a.u.
  Convergence information after    12 iterations: 
  Largest element of residual vector :  0.57235606E-07.
  Largest element of DIIS residual   :  0.26186755E-07.
   The total correlation energy is -0.496490372632 a.u.
  Convergence information after    13 iterations: 
  Largest element of residual vector :  0.21290803E-07.
  Largest element of DIIS residual   :  0.11767659E-07.
   The total correlation energy is -0.496490375659 a.u.
  Convergence information after    14 iterations: 
  Largest element of residual vector : -0.54783727E-08.
  Largest element of DIIS residual   : -0.44138920E-08.
   The total correlation energy is -0.496490375864 a.u.
  Convergence information after    15 iterations: 
  Largest element of residual vector :  0.38001253E-08.
  Largest element of DIIS residual   :  0.22948995E-08.
   The total correlation energy is -0.496490376164 a.u.
  Convergence information after    16 iterations: 
  Largest element of residual vector :  0.61767288E-09.
  Largest element of DIIS residual   :  0.48357115E-09.
   The total correlation energy is -0.496490376150 a.u.
  Convergence information after    17 iterations: 
  Largest element of residual vector :  0.54221513E-09.
  Largest element of DIIS residual   :  0.26402349E-09.
   The total correlation energy is -0.496490376195 a.u.
  Convergence information after    18 iterations: 
  Largest element of residual vector :  0.93408999E-10.
  Largest element of DIIS residual   : -0.87597741E-10.
   The total correlation energy is -0.496490376189 a.u.
  Convergence information after    19 iterations: 
  Largest element of residual vector :  0.52309636E-10.
  Largest element of DIIS residual   : -0.31334214E-10.
   The total correlation energy is -0.496490376195 a.u.
  Convergence information after    20 iterations: 
  Largest element of residual vector :  0.15417650E-10.
  Largest element of DIIS residual   :  0.90846707E-11.
   The total correlation energy is -0.496490376196 a.u.
  Convergence information after    21 iterations: 
  Largest element of residual vector :  0.55236302E-11.
  Largest element of DIIS residual   : -0.35762730E-11.
   The total correlation energy is -0.496490376197 a.u.
  Convergence information after    22 iterations: 
  Largest element of residual vector :  0.23023979E-11.
  Largest element of DIIS residual   :  0.17510088E-11.
   The total correlation energy is -0.496490376197 a.u.
  Convergence information after    23 iterations: 
  Largest element of residual vector : -0.87824539E-12.
  Largest element of DIIS residual   : -0.60924677E-12.
   The total correlation energy is -0.496490376197 a.u.
  Convergence information after    24 iterations: 
  Largest element of residual vector :  0.58492794E-12.
  Largest element of DIIS residual   :  0.51067144E-12.
   The total correlation energy is -0.496490376197 a.u.
  Convergence information after    25 iterations: 
  Largest element of residual vector :  0.13419300E-12.
  Largest element of DIIS residual   :  0.12523793E-12.
   The total correlation energy is -0.496490376197 a.u.
  Convergence information after    26 iterations: 
  Largest element of residual vector :  0.98400454E-13.
  Largest element of DIIS residual   :  0.60437594E-13.
   The total correlation energy is -0.496490376197 a.u.
  Convergence information after    27 iterations: 
  Largest element of residual vector : -0.24143664E-13.
  Largest element of DIIS residual   : -0.18409662E-13.
   The total correlation energy is -0.496490376197 a.u.
  Convergence information after    28 iterations: 
  Largest element of residual vector :  0.10710183E-13.
  Largest element of DIIS residual   : -0.67657078E-14.
   The total correlation energy is -0.496490376197 a.u.
  Convergence information after    29 iterations: 
  Largest element of residual vector : -0.28753042E-14.
  Largest element of DIIS residual   :  0.24640813E-14.
  Amplitude equations converged in    29iterations.
   The total correlation energy is -0.496490376197 a.u.
   The CC iterations have converged.

   Largest T1 amplitudes for spin case AA:
   i       a                 i       a                 i       a    
-----------------------------------------------------------------------------
[  6      90    ] 0.02675 [  7     141    ] 0.02675 [  7     144    ] 0.01572
[  6      93    ] 0.01572 [  7     142    ] 0.00897 [  6      91    ] 0.00897
[  6      97    ] 0.00869 [  7     148    ] 0.00869 [  5      12    ]-0.00812
[  6      89    ] 0.00805 [  7     140    ] 0.00805 [  5      22    ] 0.00694
[  6     106    ] 0.00681 [  7     157    ] 0.00681 [  5      17    ] 0.00609
-----------------------------------------------------------------------------
   Norm of T1AA vector (      507 symmetry allowed elements):  0.0572645259.
-----------------------------------------------------------------------------
   Largest T2 amplitudes for spin case AB:
       _       _                 _       _                 _       _
   i   j   a   b             i   j   a   b             i   j   a   b
-----------------------------------------------------------------------------
[  5   5  90  90]-0.03970 [  5   5 141 141]-0.03970 [  6   6  90  90]-0.03671
[  7   7 141 141]-0.03671 [  7   6 141  90]-0.02487 [  6   7  90 141]-0.02487
[  7   7 142 141]-0.02319 [  7   7 141 142]-0.02319 [  6   6  91  90]-0.02319
[  6   6  90  91]-0.02319 [  5   5 142 141]-0.01919 [  5   5 141 142]-0.01919
[  5   5  91  90]-0.01919 [  5   5  90  91]-0.01919 [  5   5  17  17]-0.01909
-----------------------------------------------------------------------------
   Norm of T2AB vector (   580605 symmetry allowed elements):  0.3064388309.
-----------------------------------------------------------------------------
       Summary of iterative solution of CC equations 
      -----------------------------------------------------------
                       Correlation           Total
       Iteration         Energy              Energy
      -----------------------------------------------------------
            0        -0.495600977584    -113.284882415799  DIIS 
            1        -0.480569440441    -113.269850878656  DIIS 
            2        -0.496729441488    -113.286010879703  DIIS 
            3        -0.494845780806    -113.284127219021  DIIS 
            4        -0.496259558019    -113.285540996234  DIIS 
            5        -0.496496351540    -113.285777789755  DIIS 
            6        -0.496485512946    -113.285766951161  DIIS 
            7        -0.496489160704    -113.285770598919  DIIS 
            8        -0.496489850146    -113.285771288361  DIIS 
            9        -0.496490067498    -113.285771505713  DIIS 
           10        -0.496490298983    -113.285771737198  DIIS 
           11        -0.496490334864    -113.285771773079  DIIS 
           12        -0.496490365357    -113.285771803572  DIIS 
           13        -0.496490372632    -113.285771810847  DIIS 
           14        -0.496490375659    -113.285771813874  DIIS 
           15        -0.496490375864    -113.285771814079  DIIS 
           16        -0.496490376164    -113.285771814379  DIIS 
           17        -0.496490376150    -113.285771814365  DIIS 
           18        -0.496490376195    -113.285771814410  DIIS 
           19        -0.496490376189    -113.285771814404  DIIS 
           20        -0.496490376195    -113.285771814410  DIIS 
           21        -0.496490376196    -113.285771814411  DIIS 
           22        -0.496490376197    -113.285771814412  DIIS 
           23        -0.496490376197    -113.285771814412  DIIS 
           24        -0.496490376197    -113.285771814412  DIIS 
           25        -0.496490376197    -113.285771814412  DIIS 
           26        -0.496490376197    -113.285771814412  DIIS 
           27        -0.496490376197    -113.285771814412  DIIS 
           28        -0.496490376197    -113.285771814412  DIIS 
           29        -0.496490376197    -113.285771814412  DIIS 
      -----------------------------------------------------------
      A miracle has come to pass. The CC iterations have converged.
      The reference energy is      -112.78928143821503 a.u.
      The correlation energy is      -0.49649037619724 a.u.
      The total energy is          -113.28577181441227 a.u.
 @CHECKOUT-I, Total execution time (CPU/WALL):      349.59/      52.25 seconds.
--executable xvcc finished with status     0 in       52.27 seconds (walltime).
  The final electronic energy is      -113.285771814412271 a.u. 
  This computation required                          116.57 seconds (walltime).
