 --invoking executable--
/nfs/workspaces/public/cfour_mpi/bin/xjoda


   *************************************************************************
         <<<     CCCCCC     CCCCCC   |||     CCCCCC     CCCCCC   >>>
       <<<      CCC        CCC       |||    CCC        CCC         >>>
      <<<      CCC        CCC        |||   CCC        CCC            >>>
    <<<        CCC        CCC        |||   CCC        CCC              >>>
      <<<      CCC        CCC        |||   CCC        CCC            >>>
       <<<      CCC        CCC       |||    CCC        CCC         >>>
         <<<     CCCCCC     CCCCCC   |||     CCCCCC     CCCCCC   >>>
   *************************************************************************

     ****************************************************************
     * CFOUR Coupled-Cluster techniques for Computational Chemistry *
     ****************************************************************
 

   Department of Chemistry                Institut fuer Physikalische Chemie
   University of Florida                  Universitaet Mainz
   Gainesville, FL 32611, USA             D-55099 Mainz, Germany

   Department of Chemistry                Fakultaet fuer Chemie und Biowiss.
   Johns Hopkins University               Karlsruher Institut fuer Technologie
   Baltimore, MD 21218, USA               D-76131 Karlsruhe, Germany

   Department of Chemistry                Department of Physical Chemistry
   Southern Methodist University          Eotvos Lorand University
   Dallas, TX 75275, USA                  H-1053 Budapest, Hungary

 
                       Version 2.1
 
                     vincent.theory.phys.ucl.ac.uk                     
                     Fri  7 Feb 16:43:19 GMT 2025                      
                     integer*8 version is running
 
********************************************************************************
*                          Input from ZMAT file                                *
********************************************************************************
Carbon Monoxide DBOC calculation                                                
C                                                                               
O 1 r                                                                           
                                                                                
r=1.12825                                                                       
                                                                                
                                                                                
*CFOUR(CALC=CCSD,BASIS=AUG-PCVQZ,SCF_CONV=10                                    
CC_CONV=14,DBOC=ON,MEMORY=500000000                                             
ZFIELD=50000)                                                                   
                                                                                
%isotopes                                                                       
12                                                                              
16                                                                              
                                                                                
%integrals                                                                      
dipole                                                                          
********************************************************************************
  @GTFLGS-I, Hessian will be transformed to curvilinear coordinates.
    -------------------------------------------------------------------
                    CFOUR Control Parameters 
    -------------------------------------------------------------------
        External           Internal           Value            Units
          Name               Name
    -------------------------------------------------------------------
       ABCDTYPE             IABCDT         STANDARD    [  0]    ***   
       ANHARMONIC           IANHAR         OFF         [  0]    ***   
       ANH_ALGORIT          IANALG         STANDARD    [  0]    ***   
       ANH_DERIVAT          IANDER         SECOND      [  1]    ***   
       ANH_MODE             ANHMOD         VIBRATION   [  0]    ***   
       ANH_STEPSIZ          ICUBST             50000          x 10-6  
       ANH_SYMMETR          IANHSM         ABELIAN     [  0]    ***   
       AO_LADDERS           IAOLAD         SINGLEPASS  [  1]    ***   
       AV_SCF               IAVSCF         OFF         [  0]    ***   
       BASIS                IBASIS         AUG-PCVQZ   [ 52]    ***   
       BOTHVECTORS          BOTHVC         OFF         [  0]    ***   
       BOX_POTENT           IPIAB          OFF         [  0]    ***   
       BREIT                IBREIT         OFF         [  0]    ***   
       BRUCK_CONV           IBRTOL          10D-  4             ***   
       BRUECKNER            IBRKNR         OFF         [  0]    ***   
       BUFFERSIZE           IBUFFS              4096            ***   
       CACHE_RECS           ICHREC             10               ***   
       CALCLEVEL            ICLLVL         CCSD        [ 10]    ***   
       CCORBOPT             ICCORB         OFF         [  0]  x 0.01  
       CC_CONV              ICCCNV          10D- 14             ***   
       CC_EXPORDER          ICCEOR              5               ***   
       CC_EXTRAPOL          ICCEXT         DIIS        [  1]    ***   
       CC_GUESS             ICCGES         MP2         [  0]    ***   
       CC_MAXCYC            ICCCYC            100              cycles 
       CC_PROGRAM           ICCPRO         VCC         [  0]    ***   
       CHARGE               ICHRGE              0               ***   
       CHOLESKY             ICHOLE         OFF         [  0]    ***   
       CIS_CONV             ICISTL              5               ***   
       COMM_SIZE            IPSIZE            ***               ***   
       CONSTANT             ICONST         OLD         [  1]    ***   
       CONTINUUM            ICONTU         NONE        [  0]    ***   
       CONTRACTION          ICNTYP         GENERAL     [  1]    ***   
       COORDINATES          ICOORD         INTERNAL    [  0]    ***   
       CPHF_CONVER          ICPHFT          10D- 16             ***   
       CPHF_MAXCYC          ICPHFC             64              cycles 
       CUBIC                ICUBIC         OFF         [  0]    ***   
       CURVILINEAR          ICURVY         ON          [  1]    ***   
       DBOC                 IDBOC          ON          [  1]    ***   
       DCT                  IDCT           OFF         [  0]    ***   
       DERIV_LEV            IDRLVL         SECOND      [  2]    ***   
       DEVMEM_SIZE          IDVMEM          50000000           MByte  
       DIAG_MRCC            IEOMST          10D-  0             ***   
       DIFF_TYPE            IDIFTY         RELAXED     [  0]    ***   
       DIRECT               IDIRCT         OFF         [  0]    ***   
       DROPMO               IDRPMO      NONE         
       ECP                  IECP           OFF         [  0]    ***   
       EIGENVECTOR          IVEC                1               ***   
       EL_ANHARM            IELANH         OFF         [  0]    ***   
       EOMFOLLOW            IEOMSR         ENERGY      [  0]    ***   
       EOMIP                IEOMIP         OFF         [  0]    ***   
       EOMLEVEL             HBARFM         SAME        [  0]    ***   
       EOM_MRCC             IMRCCE         NEW         [  1]    ***   
       EOM_NONIT            EOMNON         OFF         [  0]    ***   
       EOM_NSING            IEOMSI          10D-  0             ***   
       EOM_NSTATES          IMRCCD         DAVIDSON    [  0]    ***   
       EOM_NTRIP            IEOMTR          10D-  0             ***   
       EOM_ORDER            IEXORD         ENERGY      [  0]    ***   
       EOM_PROPSTA          IEOMST              0               ***   
       ESTATE_CONV          IEXTOL          10D-  5             ***   
       ESTATE_DIAG          IEXDIG         ITERATIVE   [  0]    ***   
       ESTATE_LOCK          IESLOC         ON          [  1]    ***   
       ESTATE_MAXC          IEXMXC             40               ***   
       ESTATE_PROP          IEXPRP         OFF         [  0]    ***   
       EVAL_HESS            IRECAL              0            # of cyc.
       EXCITATION           IEXCIT              0               ***   
       EXCITE               IEXCIT         NONE        [  0]    ***   
       EXTERN_POT           IEXPOT         OFF         [  0]    ***   
       FCGRADNEW            IFCGNW         OFF         [  0]    ***   
       FC_FIELD             IFINFC              0             x 10-6  
       FD_CALTYPE           IFDCAL         GRADONLY    [  0]    ***   
       FD_PROJECT           IFDPRJ         OFF         [  1]    ***   
       FD_STEPSIZE          IDISFD              0            10-4 bohr
       FD_USEGROUP          IFDGRP         FULL        [  0]    ***   
       FILE_RECSIZ          IFLREC              4096           words  
       FINITE_PERT          IFIPER              0             x 10-6  
       FIXGEOM              IFIXGM         OFF         [  0]    ***   
       FOCK                 IFOCK          AO          [  1]    ***   
       FREQ_ALGORI          IVIALG         STANDARD    [  0]    ***   
       FROZEN_CORE          IFROCO         OFF         [  0]    ***   
       GAMMA_ABCD           IGABCD         STORE       [  0]    ***   
       GAMMA_ABCI           IGABCI         STORE       [  0]    ***   
       GENBAS_1             IGNBS1              0               ***   
       GENBAS_2             IGNBS2              0               ***   
       GENBAS_3             IGNBS3              0               ***   
       GENBAS_4             IGNBS4              0               ***   
       GEO_CONV             ICONTL              5              H/bohr 
       GEO_MAXCYC           IOPTCY             50               ***   
       GEO_MAXSTEP          IMXSTP            300            millibohr
       GEO_METHOD           INR            SINGLE_POINT[  5]    ***   
       GIAO                 IGIAO          OFF         [  1]    ***   
       GIMIC                IGIMIC         OFF         [  0]    ***   
       GRID                 IGRID          OFF         [  0]    ***   
       GRID_ALGO            IGALGO         SERIAL      [  0]    ***   
       GUESS                IGUESS         MOREAD      [  0]    ***   
       HBAR                 IHBAR          OFF         [  0]    ***   
       HESS_TYPE            IHESTP         SCF         [  0]    ***   
       HF2_FILE             IHF2Fl         USE         [  1]    ***   
       HFSTABILITY          ISTABL         OFF         [  0]    ***   
       INCORE               INCORE         OFF         [  0]    ***   
       INPUT_MRCC           IMRCC          ON          [  1]    ***   
       INTEGRALS            INTTYP         VMOL        [  1]    ***   
       JODA_PRINT           IJPRNT              0               ***   
       KEYWORD_OUT          IDMPKW         NO          [  0]    ***   
       LINDEP_TOL           ILINDP              8               ***   
       LINEQ_CONV           IZTACN          10D-  7           cycles  
       LINEQ_EXPOR          ILMAXD              5               ***   
       LINEQ_MAXCY          ILMAXC            100               ***   
       LINEQ_TYPE           ILTYPE         DIIS        [  1]    ***   
       LOCK_ORBOCC          ILOCOC         OFF         [  0]    ***   
       MEMORY_SIZE          IMEMSZ         500000000           words  
       MEM_UNIT             IMEMU          INTEGERWORDS[  0]    ***   
       MRCC                 IMRCCC         OFF         [  0]    ***   
       MULTIPLICTY          IMULTP              1               ***   
       NACOUPLING           IVCOUP         OFF         [  0]    ***   
       NEGEVAL              IDIE           ABORT       [  0]    ***   
       NEWNORM              INEWNO         OFF         [  0]    ***   
       NON-HF               INONHF         OFF         [  0]    ***   
       NTOP_TAMP            ITOPT2             15               ***   
       NUC_MODEL            INUCMO         POINT       [  0]    ***   
       OCCUPATION           IOCCU   ESTIMATED BY SCF 
       OPEN-SHELL           IOPEN          SPIN-ORBITAL[  0]    ***   
       OPTVIB               IOPTVB         OFF         [  0]    ***   
       ORBITALS             IORBTP         STANDARD    [  0]    ***   
       PARALLEL             IPARAL         ON          [  1]    ***   
       PARA_INT             IPINTS         ON          [  1]    ***   
       PARA_PRINT           IPPRIN              0               ***   
       PERT_ORB             IPTORB         STANDARD    [  0]    ***   
       POINTS               IGRDFD              0               ***   
       PRINT                IPRNT               0               ***   
       PROPS                IPROPS         OFF         [  0]    ***   
       PROP_INTEGR          IINTYP         INTERNAL    [  0]    ***   
       PSI                  IPSI           OFF         [  0]    ***   
       QC_ALG               IQCALG         FLM         [  0]    ***   
       QC_LINALG            IQCLIN         TRIDIAG     [  2]    ***   
       QC_MAXCYC            IQCMAX          10D-100           cycles  
       QC_MAXSCFCY          IQCMSC          10D- 15           cycles  
       QC_RTRUST            IQCRTR          10D-  0           x 10-3  
       QC_SKIPSCF           IQCSKI         OFF         [  0]    ***   
       QC_START             IQCSTA          10D-  1             ***   
       QRHFGUESS            IQGUES         OFF         [  0]    ***   
       QUARTIC              IQUART         OFF         [  0]    ***   
       RAMAN_INT            IRAMIN         OFF         [  0]    ***   
       RAMAN_ORB            IRAMRE         UNRELAXED   [  0]    ***   
       RDO                  IRDOFM         ON          [  1]    ***   
       REDUCE_REPR          REDREP         Ir          [  0]    ***   
       REFERENCE            IREFNC         RHF         [  0]    ***   
       RELATIVIST           IRELAT         OFF         [  0]    ***   
       RELAX_DENS           IRDENS         ON          [  1]    ***   
       RESET_FLAGS          IRESET         OFF         [  0]    ***   
       RESTART_CC           ICCRES         OFF         [  0]    ***   
       ROT_EVEC             ROTVEC              0               ***   
       SAVE_INTS            ISVINT         OFF         [  0]    ***   
       SCALE_ON             ISTCRT              0               ***   
       SCF_CONV             ISCFCV          10D- 10             ***   
       SCF_DAMPING          IDAMP               0             x 10-3  
       SCF_EXPORDE          IRPPOR              6               ***   
       SCF_EXPSTAR          IRPPLS              8               ***   
       SCF_EXTRAPO          IRPP           ON          [  1]    ***   
       SCF_MAXCYC           ISCFCY            150              cycles 
       SCF_NOSTOP           ISCFST         OFF         [  0]    ***   
       SCF_PRINT            ISCFPR              0               ***   
       SCF_PROG             ISCFPR         SCF         [  0]    ***   
       SD_FIELD             IFINSD              0             x 10-6  
       SOPERT               IPERSO         OFF         [  0]    ***   
       SPHERICAL            IDFGHI         ON          [  1]    ***   
       SPINORBIT            ISOCAL         OFF         [  0]    ***   
       SPINROTATIO          ISRCON         OFF         [  0]    ***   
       SPIN_FLIP            ISPFLP         OFF         [  0]    ***   
       SPIN_ORBIT           ISPORB         OFF         [  0]    ***   
       SPIN_SCAL            ISCSMP         OFF         [  0]    ***   
       STEEPSCALE           ISTPSC              1000          x 10-3  
       SUBGROUP             ISUBGP         DEFAULT     [  0]    ***   
       SUBGRPAXIS           ISBXYZ         X           [  0]    ***   
       SYMMETRY             ISYM           ON          [  0]    ***   
       SYM_CHECK            ISYMCK         OVERRIDE    [  1]    ***   
       T3_EXTRAPOL          IT3EXT         OFF         [  0]    ***   
       T4_EXTRAPOL          IT4EXP         OFF         [  0]    ***   
       TAMP_SUM             IEVERY              5               ***   
       TESTSUITE            ITESTS         OFF         [  0]    ***   
       THERMOCH             ITHERM         OFF         [  0]    ***   
       TOL_CHOLESK          ITOLCH          10D-  4             ***   
       TRANGRAD             IRESRM         OFF         [  0]    ***   
       TRANS_INV            ITRAIN         IGNORE      [  1]    ***   
       TREAT_PERT           ITREAT         SIMULTANEOUS[  0]    ***   
       TRIP_ALGORI          ITRALG         NORMAL      [  0]    ***   
       UIJ_THRESHO          IUIJTH              1               ***   
       UNITS                IUNITS         ANGSTROM    [  0]    ***   
       UNOS                 IUNOS          OFF         [  0]    ***   
       UPDATE_HESS          IHUPDT         ON          [  1]    ***   
       VIBPHASE             ISETPH         STANDARD    [  0]    ***   
       VIBRATION            IVIB           ANALYTIC    [  1]    ***   
       VIB_ALGORIT          IGEALG         STANDARD    [  0]    ***   
       VNATORB              IVNORB         OFF         [  0]    ***   
       VTRAN                IVTRAN         FULL/PARTIAL[  0]    ***   
       XFIELD               IXEFLD              0             x 10-6  
       XFORM_TOL            IXFTOL          10D- 11             ***   
       YFIELD               IYEFLD              0             x 10-6  
       ZFIELD               IZEFLD            ***             x 10-6  
       ZSCALE_EXP           IZEXPS         OFF         [  0]    ***   
    -------------------------------------------------------------------
   2 entries found in Z-matrix 
   Job Title : Carbon Monoxide DBOC calculation                                                
   There are  1 unique internal coordinates.
   Of these,  0 will be optimized.
   User supplied Z-matrix: 
--------------------------------------------------------------------------------
       SYMBOL    BOND      LENGTH    ANGLE     ANGLE     DIHED     ANGLE
                  TO      (ANGST)    WRT      (DEG)      WRT      (DEG)
--------------------------------------------------------------------------------
        C    
        O          1         r    
                  *Initial values for internal coordinates* 
                      Name             Value
                        r               1.1282500000
--------------------------------------------------------------------------------
  read isotopes from ZMAT file 
   Rotational constants (in cm-1): 
          1.9315317250             1.9315317250
   Rotational constants (in MHz): 
      57905.8724666917         57905.8724666917
********************************************************************************
   The full molecular point group is CXv .
   The largest Abelian subgroup of the full molecular point group is C2v .
   The computational point group is C2v .
********************************************************************************
--------------------------------------------------------------------------------
   Analysis of internal coordinates specified by Z-matrix 
--------------------------------------------------------------------------------
   *The nuclear repulsion energy is   22.513184843784618 a.u.
   *There is   1 degree of freedom within the tot. symm. molecular subspace.
   *Z-matrix requests optimization of   0 coordinates.
   *The optimization is constrained.
   *The following   1 parameters can have non-zero 
    derivatives within the totally symmetric subspace:
             r    [ 1]
   *The following   0 parameters are to be optimized:

   *The following coordinates must be varied in an  unconstrained optimization.
             r    [ 1]
--------------------------------------------------------------------------------


 ----------------------------------------------------------------
         Coordinates used in calculation (QCOMP) 
 ----------------------------------------------------------------
 Z-matrix   Atomic            Coordinates (in bohr)
  Symbol    Number           X              Y              Z
 ----------------------------------------------------------------
     C         6        -0.00000000     0.00000000     1.21816770
     O         8         0.00000000     0.00000000    -0.91391625
 ----------------------------------------------------------------
 
   Interatomic distance matrix (Angstroms) 
 
                 C             O    
                [ 1]        [ 2]
  C    [ 1]     0.00000
  O    [ 2]     1.12825     0.00000
 rotcon2
   Rotational constants (in cm-1): 
          1.9315317250             0.0000000000
   Rotational constants (in MHz): 
      57905.8724666917             0.0000000000
  ECPDATA file not present.   Using default ECPDATA. 
  @GTFLGS-I, Hessian will be transformed to curvilinear coordinates.
  There are  218 basis functions.
 @CHECKOUT-I, Total execution time (CPU/WALL):        0.12/       0.15 seconds.
--executable xjoda finished with status     0 in        0.18 seconds (walltime).
 --invoking executable--
/nfs/workspaces/public/cfour_mpi/bin/xvmol
 SERIAL VERSION OF MOLECULE STARTED
********************************************************************************
                    INPUT FROM MOL FILE
********************************************************************************
INTGRL        1    0    1    0    0    0    0    0    0                         
         *** CFOUR Program System (Release V0.1) ***                            
Carbon Monoxide DBOC calculation                                                
    2    2 X  Y       0.10E-08              0    0                              
   9999.00      3.00                                                            
          6.00000000    1    5    1    1    1    1    1                         
C #1  -0.000000000000000   0.000000000000000   1.218167698172089                
   16    9                                                                      
   33980.0000000000       9.100000000000000E-005 -1.900000000000000E-005        
  0.000000000000000E+000  0.000000000000000E+000  0.000000000000000E+000        
  0.000000000000000E+000  0.000000000000000E+000  0.000000000000000E+000        
  0.000000000000000E+000                                                        
   5089.00000000000       7.040000000000000E-004 -1.510000000000000E-004        
  0.000000000000000E+000  0.000000000000000E+000  0.000000000000000E+000        
  0.000000000000000E+000  0.000000000000000E+000  0.000000000000000E+000        
  0.000000000000000E+000                                                        
   1157.00000000000       3.693000000000000E-003 -7.850000000000000E-004        
  0.000000000000000E+000  0.000000000000000E+000  0.000000000000000E+000        
  0.000000000000000E+000  0.000000000000000E+000  0.000000000000000E+000        
  0.000000000000000E+000                                                        
   326.600000000000       1.536000000000000E-002 -3.324000000000000E-003        
  0.000000000000000E+000  0.000000000000000E+000  0.000000000000000E+000        
  0.000000000000000E+000  0.000000000000000E+000  0.000000000000000E+000        
  0.000000000000000E+000                                                        
   106.100000000000       5.292900000000000E-002 -1.151200000000000E-002        
  0.000000000000000E+000  0.000000000000000E+000  0.000000000000000E+000        
  0.000000000000000E+000  0.000000000000000E+000  0.000000000000000E+000        
  0.000000000000000E+000                                                        
   38.1100000000000       0.147043000000000      -3.416000000000000E-002        
  0.000000000000000E+000  0.000000000000000E+000  0.000000000000000E+000        
  0.000000000000000E+000  0.000000000000000E+000  0.000000000000000E+000        
  0.000000000000000E+000                                                        
   14.7500000000000       0.305631000000000      -7.717300000000001E-002        
  0.000000000000000E+000  0.000000000000000E+000  0.000000000000000E+000        
  0.000000000000000E+000  0.000000000000000E+000  0.000000000000000E+000        
  0.000000000000000E+000                                                        
   6.03500000000000       0.399345000000000      -0.141493000000000             
  0.000000000000000E+000  0.000000000000000E+000  0.000000000000000E+000        
  0.000000000000000E+000  0.000000000000000E+000  0.000000000000000E+000        
  0.000000000000000E+000                                                        
   2.53000000000000       0.217051000000000      -0.118019000000000             
  0.000000000000000E+000  0.000000000000000E+000  0.000000000000000E+000        
  0.000000000000000E+000  0.000000000000000E+000  0.000000000000000E+000        
  0.000000000000000E+000                                                        
  0.735500000000000       1.589400000000000E-002  0.273806000000000             
   1.00000000000000       0.000000000000000E+000  0.000000000000000E+000        
  0.000000000000000E+000  0.000000000000000E+000  0.000000000000000E+000        
  0.000000000000000E+000                                                        
  0.290500000000000      -3.084000000000000E-003  0.586510000000000             
  0.000000000000000E+000   1.00000000000000       0.000000000000000E+000        
  0.000000000000000E+000  0.000000000000000E+000  0.000000000000000E+000        
  0.000000000000000E+000                                                        
  0.111100000000000       9.779999999999999E-004  0.285430000000000             
  0.000000000000000E+000  0.000000000000000E+000   1.00000000000000             
  0.000000000000000E+000  0.000000000000000E+000  0.000000000000000E+000        
  0.000000000000000E+000                                                        
   7.21600000000000       0.000000000000000E+000  0.000000000000000E+000        
  0.000000000000000E+000  0.000000000000000E+000  0.000000000000000E+000        
   1.00000000000000       0.000000000000000E+000  0.000000000000000E+000        
  0.000000000000000E+000                                                        
   19.5700000000000       0.000000000000000E+000  0.000000000000000E+000        
  0.000000000000000E+000  0.000000000000000E+000  0.000000000000000E+000        
  0.000000000000000E+000   1.00000000000000       0.000000000000000E+000        
  0.000000000000000E+000                                                        
   53.0730000000000       0.000000000000000E+000  0.000000000000000E+000        
  0.000000000000000E+000  0.000000000000000E+000  0.000000000000000E+000        
  0.000000000000000E+000  0.000000000000000E+000   1.00000000000000             
  0.000000000000000E+000                                                        
  4.145000000000000E-002  0.000000000000000E+000  0.000000000000000E+000        
  0.000000000000000E+000  0.000000000000000E+000  0.000000000000000E+000        
  0.000000000000000E+000  0.000000000000000E+000  0.000000000000000E+000        
   1.00000000000000                                                             
   10    8                                                                      
   34.5100000000000       5.378000000000000E-003  0.000000000000000E+000        
  0.000000000000000E+000  0.000000000000000E+000  0.000000000000000E+000        
  0.000000000000000E+000  0.000000000000000E+000  0.000000000000000E+000        
   7.91500000000000       3.613200000000000E-002  0.000000000000000E+000        
  0.000000000000000E+000  0.000000000000000E+000  0.000000000000000E+000        
  0.000000000000000E+000  0.000000000000000E+000  0.000000000000000E+000        
   2.36800000000000       0.142493000000000       0.000000000000000E+000        
  0.000000000000000E+000  0.000000000000000E+000  0.000000000000000E+000        
  0.000000000000000E+000  0.000000000000000E+000  0.000000000000000E+000        
  0.813200000000000       0.342150000000000        1.00000000000000             
  0.000000000000000E+000  0.000000000000000E+000  0.000000000000000E+000        
  0.000000000000000E+000  0.000000000000000E+000  0.000000000000000E+000        
  0.289000000000000       0.463864000000000       0.000000000000000E+000        
   1.00000000000000       0.000000000000000E+000  0.000000000000000E+000        
  0.000000000000000E+000  0.000000000000000E+000  0.000000000000000E+000        
  0.100700000000000       0.250028000000000       0.000000000000000E+000        
  0.000000000000000E+000   1.00000000000000       0.000000000000000E+000        
  0.000000000000000E+000  0.000000000000000E+000  0.000000000000000E+000        
   8.18200000000000       0.000000000000000E+000  0.000000000000000E+000        
  0.000000000000000E+000  0.000000000000000E+000   1.00000000000000             
  0.000000000000000E+000  0.000000000000000E+000  0.000000000000000E+000        
   24.1860000000000       0.000000000000000E+000  0.000000000000000E+000        
  0.000000000000000E+000  0.000000000000000E+000  0.000000000000000E+000        
   1.00000000000000       0.000000000000000E+000  0.000000000000000E+000        
   71.4940000000000       0.000000000000000E+000  0.000000000000000E+000        
  0.000000000000000E+000  0.000000000000000E+000  0.000000000000000E+000        
  0.000000000000000E+000   1.00000000000000       0.000000000000000E+000        
  3.218000000000000E-002  0.000000000000000E+000  0.000000000000000E+000        
  0.000000000000000E+000  0.000000000000000E+000  0.000000000000000E+000        
  0.000000000000000E+000  0.000000000000000E+000   1.00000000000000             
    6    6                                                                      
   1.84800000000000        1.00000000000000       0.000000000000000E+000        
  0.000000000000000E+000  0.000000000000000E+000  0.000000000000000E+000        
  0.000000000000000E+000                                                        
  0.649000000000000       0.000000000000000E+000   1.00000000000000             
  0.000000000000000E+000  0.000000000000000E+000  0.000000000000000E+000        
  0.000000000000000E+000                                                        
  0.228000000000000       0.000000000000000E+000  0.000000000000000E+000        
   1.00000000000000       0.000000000000000E+000  0.000000000000000E+000        
  0.000000000000000E+000                                                        
   8.65600000000000       0.000000000000000E+000  0.000000000000000E+000        
  0.000000000000000E+000   1.00000000000000       0.000000000000000E+000        
  0.000000000000000E+000                                                        
   33.2130000000000       0.000000000000000E+000  0.000000000000000E+000        
  0.000000000000000E+000  0.000000000000000E+000   1.00000000000000             
  0.000000000000000E+000                                                        
  7.660000000000000E-002  0.000000000000000E+000  0.000000000000000E+000        
  0.000000000000000E+000  0.000000000000000E+000  0.000000000000000E+000        
   1.00000000000000                                                             
    4    4                                                                      
   1.41900000000000        1.00000000000000       0.000000000000000E+000        
  0.000000000000000E+000  0.000000000000000E+000                                
  0.485000000000000       0.000000000000000E+000   1.00000000000000             
  0.000000000000000E+000  0.000000000000000E+000                                
   24.6940000000000       0.000000000000000E+000  0.000000000000000E+000        
   1.00000000000000       0.000000000000000E+000                                
  0.187000000000000       0.000000000000000E+000  0.000000000000000E+000        
  0.000000000000000E+000   1.00000000000000                                     
    2    2                                                                      
   1.01100000000000        1.00000000000000       0.000000000000000E+000        
  0.424000000000000       0.000000000000000E+000   1.00000000000000             
          8.00000000    1    5    1    1    1    1    1                         
O #2   0.000000000000000   0.000000000000000  -0.913916248771193                
   16    9                                                                      
   61420.0000000000       9.000000000000001E-005 -2.000000000000000E-005        
  0.000000000000000E+000  0.000000000000000E+000  0.000000000000000E+000        
  0.000000000000000E+000  0.000000000000000E+000  0.000000000000000E+000        
  0.000000000000000E+000                                                        
   9199.00000000000       6.980000000000001E-004 -1.590000000000000E-004        
  0.000000000000000E+000  0.000000000000000E+000  0.000000000000000E+000        
  0.000000000000000E+000  0.000000000000000E+000  0.000000000000000E+000        
  0.000000000000000E+000                                                        
   2091.00000000000       3.664000000000000E-003 -8.290000000000000E-004        
  0.000000000000000E+000  0.000000000000000E+000  0.000000000000000E+000        
  0.000000000000000E+000  0.000000000000000E+000  0.000000000000000E+000        
  0.000000000000000E+000                                                        
   590.900000000000       1.521800000000000E-002 -3.508000000000000E-003        
  0.000000000000000E+000  0.000000000000000E+000  0.000000000000000E+000        
  0.000000000000000E+000  0.000000000000000E+000  0.000000000000000E+000        
  0.000000000000000E+000                                                        
   192.300000000000       5.242300000000000E-002 -1.215600000000000E-002        
  0.000000000000000E+000  0.000000000000000E+000  0.000000000000000E+000        
  0.000000000000000E+000  0.000000000000000E+000  0.000000000000000E+000        
  0.000000000000000E+000                                                        
   69.3200000000000       0.145921000000000      -3.626100000000000E-002        
  0.000000000000000E+000  0.000000000000000E+000  0.000000000000000E+000        
  0.000000000000000E+000  0.000000000000000E+000  0.000000000000000E+000        
  0.000000000000000E+000                                                        
   26.9700000000000       0.305258000000000      -8.299200000000000E-002        
  0.000000000000000E+000  0.000000000000000E+000  0.000000000000000E+000        
  0.000000000000000E+000  0.000000000000000E+000  0.000000000000000E+000        
  0.000000000000000E+000                                                        
   11.1000000000000       0.398508000000000      -0.152090000000000             
  0.000000000000000E+000  0.000000000000000E+000  0.000000000000000E+000        
  0.000000000000000E+000  0.000000000000000E+000  0.000000000000000E+000        
  0.000000000000000E+000                                                        
   4.68200000000000       0.216980000000000      -0.115331000000000             
  0.000000000000000E+000  0.000000000000000E+000  0.000000000000000E+000        
  0.000000000000000E+000  0.000000000000000E+000  0.000000000000000E+000        
  0.000000000000000E+000                                                        
   1.42800000000000       1.759400000000000E-002  0.288979000000000             
   1.00000000000000       0.000000000000000E+000  0.000000000000000E+000        
  0.000000000000000E+000  0.000000000000000E+000  0.000000000000000E+000        
  0.000000000000000E+000                                                        
  0.554700000000000      -2.502000000000000E-003  0.586128000000000             
  0.000000000000000E+000   1.00000000000000       0.000000000000000E+000        
  0.000000000000000E+000  0.000000000000000E+000  0.000000000000000E+000        
  0.000000000000000E+000                                                        
  0.206700000000000       9.540000000000000E-004  0.277624000000000             
  0.000000000000000E+000  0.000000000000000E+000   1.00000000000000             
  0.000000000000000E+000  0.000000000000000E+000  0.000000000000000E+000        
  0.000000000000000E+000                                                        
   12.9740000000000       0.000000000000000E+000  0.000000000000000E+000        
  0.000000000000000E+000  0.000000000000000E+000  0.000000000000000E+000        
   1.00000000000000       0.000000000000000E+000  0.000000000000000E+000        
  0.000000000000000E+000                                                        
   34.9000000000000       0.000000000000000E+000  0.000000000000000E+000        
  0.000000000000000E+000  0.000000000000000E+000  0.000000000000000E+000        
  0.000000000000000E+000   1.00000000000000       0.000000000000000E+000        
  0.000000000000000E+000                                                        
   93.8810000000000       0.000000000000000E+000  0.000000000000000E+000        
  0.000000000000000E+000  0.000000000000000E+000  0.000000000000000E+000        
  0.000000000000000E+000  0.000000000000000E+000   1.00000000000000             
  0.000000000000000E+000                                                        
  6.959000000000000E-002  0.000000000000000E+000  0.000000000000000E+000        
  0.000000000000000E+000  0.000000000000000E+000  0.000000000000000E+000        
  0.000000000000000E+000  0.000000000000000E+000  0.000000000000000E+000        
   1.00000000000000                                                             
   10    8                                                                      
   63.4200000000000       6.044000000000000E-003  0.000000000000000E+000        
  0.000000000000000E+000  0.000000000000000E+000  0.000000000000000E+000        
  0.000000000000000E+000  0.000000000000000E+000  0.000000000000000E+000        
   14.6600000000000       4.179900000000000E-002  0.000000000000000E+000        
  0.000000000000000E+000  0.000000000000000E+000  0.000000000000000E+000        
  0.000000000000000E+000  0.000000000000000E+000  0.000000000000000E+000        
   4.45900000000000       0.161143000000000       0.000000000000000E+000        
  0.000000000000000E+000  0.000000000000000E+000  0.000000000000000E+000        
  0.000000000000000E+000  0.000000000000000E+000  0.000000000000000E+000        
   1.53100000000000       0.356731000000000        1.00000000000000             
  0.000000000000000E+000  0.000000000000000E+000  0.000000000000000E+000        
  0.000000000000000E+000  0.000000000000000E+000  0.000000000000000E+000        
  0.530200000000000       0.448309000000000       0.000000000000000E+000        
   1.00000000000000       0.000000000000000E+000  0.000000000000000E+000        
  0.000000000000000E+000  0.000000000000000E+000  0.000000000000000E+000        
  0.175000000000000       0.244940000000000       0.000000000000000E+000        
  0.000000000000000E+000   1.00000000000000       0.000000000000000E+000        
  0.000000000000000E+000  0.000000000000000E+000  0.000000000000000E+000        
   14.4750000000000       0.000000000000000E+000  0.000000000000000E+000        
  0.000000000000000E+000  0.000000000000000E+000   1.00000000000000             
  0.000000000000000E+000  0.000000000000000E+000  0.000000000000000E+000        
   42.7300000000000       0.000000000000000E+000  0.000000000000000E+000        
  0.000000000000000E+000  0.000000000000000E+000  0.000000000000000E+000        
   1.00000000000000       0.000000000000000E+000  0.000000000000000E+000        
   126.140000000000       0.000000000000000E+000  0.000000000000000E+000        
  0.000000000000000E+000  0.000000000000000E+000  0.000000000000000E+000        
  0.000000000000000E+000   1.00000000000000       0.000000000000000E+000        
  5.348000000000000E-002  0.000000000000000E+000  0.000000000000000E+000        
  0.000000000000000E+000  0.000000000000000E+000  0.000000000000000E+000        
  0.000000000000000E+000  0.000000000000000E+000   1.00000000000000             
    6    6                                                                      
   3.77500000000000        1.00000000000000       0.000000000000000E+000        
  0.000000000000000E+000  0.000000000000000E+000  0.000000000000000E+000        
  0.000000000000000E+000                                                        
   1.30000000000000       0.000000000000000E+000   1.00000000000000             
  0.000000000000000E+000  0.000000000000000E+000  0.000000000000000E+000        
  0.000000000000000E+000                                                        
  0.444000000000000       0.000000000000000E+000  0.000000000000000E+000        
   1.00000000000000       0.000000000000000E+000  0.000000000000000E+000        
  0.000000000000000E+000                                                        
   14.9270000000000       0.000000000000000E+000  0.000000000000000E+000        
  0.000000000000000E+000   1.00000000000000       0.000000000000000E+000        
  0.000000000000000E+000                                                        
   57.5440000000000       0.000000000000000E+000  0.000000000000000E+000        
  0.000000000000000E+000  0.000000000000000E+000   1.00000000000000             
  0.000000000000000E+000                                                        
  0.154000000000000       0.000000000000000E+000  0.000000000000000E+000        
  0.000000000000000E+000  0.000000000000000E+000  0.000000000000000E+000        
   1.00000000000000                                                             
    4    4                                                                      
   2.66600000000000        1.00000000000000       0.000000000000000E+000        
  0.000000000000000E+000  0.000000000000000E+000                                
  0.859000000000000       0.000000000000000E+000   1.00000000000000             
  0.000000000000000E+000  0.000000000000000E+000                                
   26.4830000000000       0.000000000000000E+000  0.000000000000000E+000        
   1.00000000000000       0.000000000000000E+000                                
  0.324000000000000       0.000000000000000E+000  0.000000000000000E+000        
  0.000000000000000E+000   1.00000000000000                                     
    2    2                                                                      
   1.84600000000000        1.00000000000000       0.000000000000000E+000        
  0.714000000000000       0.000000000000000E+000   1.00000000000000             
FINISH                                                                          
 
********************************************************************************
 ONE- AND TWO-ELECTRON INTEGRALS OVER SYMMETRY-ADAPTED AOS ARE CALCULATED.

  SPHERICAL HARMONICS ARE USED.
  
  INTEGRALS LESS THAN  0.10E-13 ARE NEGLECTED.

  NUCLEAR REPULSION ENERGY :   22.5131848438 A.U.
  @MOLECU-I, ONE ELECTRON INTEGRALS (CPU/WALL):        0.06/       0.06 SECONDS.
  @TWOEL-I,    4595968 INTEGRALS OF SYMMETRY TYPE  I I I I
  @TWOEL-I,   19727067 INTEGRALS OF SYMMETRY TYPE  I J I J
  @TWOEL-I,   10395446 INTEGRALS OF SYMMETRY TYPE  I I J J
  @TWOEL-I,   14595839 INTEGRALS OF SYMMETRY TYPE  I J K L
  @TWOEL-I, TOTAL NUMBER OF 2-E INTEGRALS   49314320.
  @MOLECU-I, TWO ELECTRON INTEGRALS (CPU/WALL):      151.50/      21.86 SECONDS.
 @CHECKOUT-I, Total execution time (CPU/WALL):      151.58/      21.94 seconds.

Running with 14 threads/proc

--executable xvmol finished with status     0 in       21.97 seconds (walltime).
 --invoking executable--
/nfs/workspaces/public/cfour_mpi/bin/xvmol2ja
 @GETMEM-I,  Allocated    3814 MB of main memory.
 @CHECKOUT-I, Total execution time (CPU/WALL):        0.12/       0.03 seconds.
--executable xvmol2ja finished with status     0 in        0.06 seconds (walltime).
 --invoking executable--
/nfs/workspaces/public/cfour_mpi/bin/xvprop
 @GETMEM-I,  Allocated    3814 MB of main memory.
   Property integrals will be calculated.
    --------------------------------------------------------------
                                   Property evaluated at 
    Property type                X             Y             Z
    --------------------------------------------------------------
    Dipole moment               ----          ----          ----  
    Quadrupole moment           ----          ----          ----  
    Octopole moment             ----          ----          ----  
    Relativisitic corr.         ----          ----          ----  
    Second moment            0.0000000     0.0000000     0.0000000
    Electron density         0.0000000     0.0000000     1.2181677
    Electron density         0.0000000     0.0000000    -0.9139162
    Field gradient           0.0000000     0.0000000     1.2181677
    Field gradient           0.0000000     0.0000000    -0.9139162
    Potential                0.0000000     0.0000000     1.2181677
    Potential                0.0000000     0.0000000    -0.9139162
    --------------------------------------------------------------
 @CHECKOUT-I, Total execution time (CPU/WALL):        1.29/       1.31 seconds.
--executable xvprop finished with status     0 in        1.32 seconds (walltime).
 --invoking executable--
/nfs/workspaces/public/cfour_mpi/bin/xvscf
  There are  218 functions in the AO basis.

  There are 4 irreducible representations.

       Irrep        # of functions
         1                 86
         2                 52
         3                 52
         4                 28


  Parameters for SCF calculation: 
        SCF reference function:  RHF  
  Maximum number of iterations:  150
     Full symmetry point group: CXv 
     Computational point group: C2v 
        Initial density matrix: MOREAD                 
     SCF convergence tolerance: 10**(-10)
  DIIS convergence acceleration:  ON
          Latest start for DIIS:   8
                     DIIS order:   6

  Memory information:    2523578 words required.
  Fock matrices are constructed from AO integral file.
 @GETMEM-I,  Allocated      19 MB of main memory.
  Initialization and symmetry analysis required      0.001 seconds.

  Adding electric field perturbation to one-electron Hamiltonian.
  Field direction     : Z
  Field strength      :  0.0500000 a.u.

  @INITGES-I, Occupancies from core Hamiltonian:

          Alpha population by irrep:   5    1    1    0
           Beta population by irrep:   5    1    1    0


 total no. of electrons in initial guess :  0.000000000000000E+000
  --------------------------------------------------------------------
  Iteration         Total Energy            Largest Density Difference
  --------------------------------------------------------------------
       0            22.513301033841181              0.0000000000D+00
   current occupation vector 
     5  1  1  0
     5  1  1  0
       1           -92.014475098645676              0.1876163592D+02
   current occupation vector 
     5  1  1  0
     5  1  1  0
       2           -96.246927165157558              0.2147711364D+03
   current occupation vector 
     4  1  2  0
     4  1  2  0
       3          -103.742626391142807              0.2147649841D+03
   current occupation vector 
     5  1  1  0
     5  1  1  0
       4          -102.123507572871517              0.2168684375D+03
   current occupation vector 
     5  1  1  0
     5  1  1  0
       5          -104.910144515509700              0.2168718948D+03
   current occupation vector 
     5  1  1  0
     5  1  1  0
       6          -102.485223485968589              0.2564790061D+03
   current occupation vector 
     5  1  1  0
     5  1  1  0
       7          -104.162880514012954              0.2564356035D+03
   current occupation vector 
     5  1  1  0
     5  1  1  0
       8          -100.386206934765994              0.3859700732D+02
   current occupation vector 
     5  1  1  0
     5  1  1  0
       9          -111.161831144922019              0.3850042828D+02
   current occupation vector 
     5  1  1  0
     5  1  1  0
      10          -112.505324990031397              0.9826866946D+00
   current occupation vector 
     5  1  1  0
     5  1  1  0
      11          -112.808025272260494              0.4530831202D+00
   current occupation vector 
     5  1  1  0
     5  1  1  0
      12          -112.812105243565924              0.6594548957D-01
   current occupation vector 
     5  1  1  0
     5  1  1  0
      13          -112.812218637537029              0.1336540604D-01
   current occupation vector 
     5  1  1  0
     5  1  1  0
      14          -112.812237440203091              0.7052317584D-02
   current occupation vector 
     5  1  1  0
     5  1  1  0
      15          -112.812237814320184              0.1263364305D-02
   current occupation vector 
     5  1  1  0
     5  1  1  0
      16          -112.812237823642164              0.1517531676D-03
   current occupation vector 
     5  1  1  0
     5  1  1  0
      17          -112.812237823922175              0.5895104649D-04
   current occupation vector 
     5  1  1  0
     5  1  1  0
      18          -112.812237823942070              0.2464901183D-04
   current occupation vector 
     5  1  1  0
     5  1  1  0
      19          -112.812237823943661              0.8685169846D-05
   current occupation vector 
     5  1  1  0
     5  1  1  0
      20          -112.812237823942439              0.8704080633D-06
   current occupation vector 
     5  1  1  0
     5  1  1  0
      21          -112.812237823942780              0.1162132406D-06
   current occupation vector 
     5  1  1  0
     5  1  1  0
      22          -112.812237823943605              0.7865501560D-07
   current occupation vector 
     5  1  1  0
     5  1  1  0
      23          -112.812237823942922              0.2047396164D-07
   current occupation vector 
     5  1  1  0
     5  1  1  0
      24          -112.812237823942212              0.1078274633D-07
   current occupation vector 
     5  1  1  0
     5  1  1  0
      25          -112.812237823941672              0.1258195315D-08
   current occupation vector 
     5  1  1  0
     5  1  1  0
      26          -112.812237823943036              0.1172515418D-09
   current occupation vector 
     5  1  1  0
     5  1  1  0
      27          -112.812237823942809              0.3210499921D-09
   current occupation vector 
     5  1  1  0
     5  1  1  0
      28          -112.812237823942837              0.1536369088D-09
   current occupation vector 
     5  1  1  0
     5  1  1  0

  SCF has converged.

 Density matrix saved to file den.dat
 total electron number:   14.0000000000004     
     E(SCF)=      -112.812237823943889              0.7531728019D-10

  Eigenvector printing suppressed.

 @PUTMOS-I, Writing converged MOs to NEWMOS. 
 @PUTMOS-I, Symmetry   1 Full Blocks 21 Partial Blocksize   2
 @PUTMOS-I, Symmetry   2 Full Blocks 13 Partial Blocksize   0
 @PUTMOS-I, Symmetry   3 Full Blocks 13 Partial Blocksize   0
 @PUTMOS-I, Symmetry   4 Full Blocks  7 Partial Blocksize   0
 @PUTFOCK-I, Writing converged Fock matrix to NEWFOCK. 
 @PUTFOCK-I, Symmetry   1 Full Blocks 21 Partial Blocksize   2
 @PUTFOCK-I, Symmetry   2 Full Blocks 13 Partial Blocksize   0
 @PUTFOCK-I, Symmetry   3 Full Blocks 13 Partial Blocksize   0
 @PUTFOCK-I, Symmetry   4 Full Blocks  7 Partial Blocksize   0


 
  ORBITAL EIGENVALUES (ALPHA)  (1H = 27.2113834 eV)

       MO #        E(hartree)               E(eV)           FULLSYM    COMPSYM
       ----   --------------------   --------------------   -------   ---------
    1     1         -20.6546948106        -562.0428195004     SG+        A1 (1)
    2     2         -11.3458011775        -308.7349458211     SG+        A1 (1)
    3     3          -1.5226684116         -41.4339139387     SG+        A1 (1)
    4     4          -0.8173302586         -22.2406870322     SG+        A1 (1)
    5   139          -0.6464374273         -17.5904566786      PI        B2 (3)
    6    87          -0.6464374273         -17.5904566785      PI        B1 (2)
    7     5          -0.5023835220         -13.6705506299     SG+        A1 (1)
  +++++++++++++++++++++++++++++++++++++++++++++++++++++++++++++++++++++++++++++
    8     6          -0.1534469360          -4.1755034070     SG+        A1 (1)
    9   140           0.0168906325           0.4596174758      PI        B2 (3)
   10    88           0.0168906325           0.4596174758      PI        B1 (2)
   11     7           0.1027490779           2.7959445532     SG+        A1 (1)
   12     8           0.1290562504           3.5117991108     SG+        A1 (1)
   13   141           0.1594143104           4.3378839189      PI        B2 (3)
   14    89           0.1594143104           4.3378839189      PI        B1 (2)
   15   142           0.2305576027           6.2737913216      PI        B2 (3)
   16    90           0.2305576027           6.2737913216      PI        B1 (2)
   17     9           0.2807350048           7.6391878497      DE        A1 (1)
   18   191           0.2807350048           7.6391878497      DE        A2 (4)
   19    10           0.3062879876           8.3345198619     SG+        A1 (1)
   20   143           0.3646884086           9.9236761076      PI        B2 (3)
   21    91           0.3646884086           9.9236761076      PI        B1 (2)
   22    11           0.4000911362          10.8870333018     SG+        A1 (1)
   23   144           0.4572579503          12.4426213989      PI        B2 (3)
   24    92           0.4572579503          12.4426213989      PI        B1 (2)
   25    12           0.4739485588          12.8967959465     SG+        A1 (1)
   26   192           0.5066624977          13.7869874795      DE        A2 (4)
   27    13           0.5066624977          13.7869874795      DE        A1 (1)
   28    14           0.5365402577          14.6000026615     SG+        A1 (1)
   29   145           0.5716188588          15.5545399254      PI        B2 (3)
   30    93           0.5716188588          15.5545399254      PI        B1 (2)
   31    15           0.6228028771          16.9473278704     SG+        A1 (1)
   32    16           0.7768300074          21.1386191690     SG+        A1 (1)
   33   146           0.8009072974          21.7937955375      PH        B2 (3)
   34    94           0.8009072974          21.7937955375      PH        B1 (2)
   35    17           0.8151640026          22.1817402092      DE        A1 (1)
   36   193           0.8151640026          22.1817402092      DE        A2 (4)
   37   147           0.8538213835          23.2336610217      PI        B2 (3)
   38    95           0.8538213835          23.2336610217      PI        B1 (2)
   39    18           0.8985207411          24.4499923780     SG+        A1 (1)
   40   148           0.9392497026          25.5582837668      PI        B2 (3)
   41    96           0.9392497026          25.5582837668      PI        B1 (2)
   42    19           0.9505817171          25.8666435557      DE        A1 (1)
   43   194           0.9505817171          25.8666435557      DE        A2 (4)
   44    20           1.0159142087          27.6444310348     SG+        A1 (1)
   45   149           1.1429570503          31.1014425062      PI        B2 (3)
   46    97           1.1429570503          31.1014425062      PI        B1 (2)
   47    21           1.2202883826          33.2057350387     SG+        A1 (1)
   48    98           1.4219040829          38.6919771576      PH        B1 (2)
   49   150           1.4219040829          38.6919771576      PH        B2 (3)
   50   195           1.4746130162          40.1262601497      DE        A2 (4)
   51    22           1.4746130162          40.1262601497      DE        A1 (1)
   52    23           1.4997159061          40.8093445120     SG+        A1 (1)
   53   151           1.5085719070          41.0503285480      PI        B2 (3)
   54    99           1.5085719070          41.0503285480      PI        B1 (2)
   55    24           1.6133524590          43.9015523217     SG+        A1 (1)
   56    25           1.7506921457          47.6387551916     SG+        A1 (1)
   57    26           1.7623079204          47.9548364919      DE        A1 (1)
   58   196           1.7623079204          47.9548364919      DE        A2 (4)
   59   152           1.8030908111          49.0645953659      PI        B2 (3)
   60   100           1.8030908111          49.0645953659      PI        B1 (2)
   61   153           1.9784193394          53.8355271695      PI        B2 (3)
   62   101           1.9784193394          53.8355271696      PI        B1 (2)
   63   197           2.1489150983          58.4749526346      PI        A2 (4)
   64    27           2.1489150983          58.4749526346      PI        A1 (1)
   65    28           2.1790639141          59.2953436190     SG+        A1 (1)
   66    29           2.2328863758          60.7599272601      DE        A1 (1)
   67   198           2.2328863758          60.7599272601      DE        A2 (4)
   68   102           2.2974118924          62.5157558329      PH        B1 (2)
   69   154           2.2974118924          62.5157558329      PH        B2 (3)
   70    30           2.3827192447          64.8370869025     SG+        A1 (1)
   71   155           2.3975085799          65.2395251713      PI        B2 (3)
   72   103           2.3975085799          65.2395251714      PI        B1 (2)
   73   104           2.4028484171          65.3848295285      PH        B1 (2)
   74   156           2.4028484171          65.3848295285      PH        B2 (3)
   75    31           2.4321520677          66.1822224001      DE        A1 (1)
   76   199           2.4321520677          66.1822224001      DE        A2 (4)
   77    32           2.5436272186          69.2156154715     SG+        A1 (1)
   78   157           2.6149439313          71.1562418847      PI        B2 (3)
   79   105           2.6149439313          71.1562418847      PI        B1 (2)
   80   158           2.8633680899          77.9162069107      PI        B2 (3)
   81   106           2.8633680899          77.9162069107      PI        B1 (2)
   82    33           2.9425888581          80.0719136070     SG+        A1 (1)
   83    34           3.0241184610          82.2904468906      DE        A1 (1)
   84   200           3.0241184611          82.2904468908      DE        A2 (4)
   85    35           3.4869163184          94.8838168246     SG+        A1 (1)
   86    36           3.7059097841         100.8429319810      PI        A1 (1)
   87   201           3.7059097841         100.8429319810      PI        A2 (4)
   88   159           3.7498198734         102.0377862565      PI        B2 (3)
   89   107           3.7498198734         102.0377862566      PI        B1 (2)
   90    37           3.9246741932         106.7958141904     SG+        A1 (1)
   91   160           4.0642261477         110.5932159305      PH        B2 (3)
   92   108           4.0642261477         110.5932159305      PH        B1 (2)
   93    38           4.1465852854         112.8343220008      DE        A1 (1)
   94   202           4.1465852854         112.8343220008      DE        A2 (4)
   95   161           4.1794902352         113.7297112060      PI        B2 (3)
   96   109           4.1794902352         113.7297112060      PI        B1 (2)
   97    39           4.2492780456         115.6287340717     SG+        A1 (1)
   98   110           4.2732269543         116.2804170084      PH        B1 (2)
   99   162           4.2732269543         116.2804170084      PH        B2 (3)
  100    40           4.3763293057         119.0859746209      DE        A1 (1)
  101   203           4.3763293057         119.0859746210      DE        A2 (4)
  102    41           4.5393777193         123.5227475160     SG+        A1 (1)
  103   163           4.7687889845         129.7653454105      PI        B2 (3)
  104   111           4.7687889845         129.7653454106      PI        B1 (2)
  105    42           5.0196370581         136.5912685157     SG+        A1 (1)
  106   112           5.1366989914         139.7766856663      PI        B1 (2)
  107   164           5.1366989914         139.7766856663      PI        B2 (3)
  108   204           5.1528672890         140.2166474103      DE        A2 (4)
  109    43           5.1528672890         140.2166474103      DE        A1 (1)
  110   165           5.8368550261         158.8288999663      PI        B2 (3)
  111   113           5.8368550261         158.8288999663      PI        B1 (2)
  112    44           5.8562575122         159.3568684546     SG+        A1 (1)
  113   205           5.9310844081         161.3930118060      PI        A2 (4)
  114    45           5.9310844081         161.3930118060      PI        A1 (1)
  115   166           6.1651640145         167.7626417219      PH        B2 (3)
  116   114           6.1651640145         167.7626417219      PH        B1 (2)
  117    46           6.2806177855         170.9042985508     SG+        A1 (1)
  118    47           6.3491420106         172.7689375105      DE        A1 (1)
  119   206           6.3491420106         172.7689375105      DE        A2 (4)
  120   167           6.3626367240         173.1361473312      PI        B2 (3)
  121   115           6.3626367240         173.1361473312      PI        B1 (2)
  122   168           6.4697256087         176.0501840307      PH        B2 (3)
  123   116           6.4697256087         176.0501840307      PH        B1 (2)
  124   207           6.6076814205         179.8041525188      DE        A2 (4)
  125    48           6.6076814205         179.8041525188      DE        A1 (1)
  126    49           7.0757111959         192.5398901800     SG+        A1 (1)
  127   208           7.3654309521         200.4235655425      DE        A2 (4)
  128    50           7.3654309521         200.4235655425      DE        A1 (1)
  129   169           7.5114977706         204.3982457433      PI        B2 (3)
  130   117           7.5114977706         204.3982457434      PI        B1 (2)
  131    51           7.8086597171         212.4844334013     SG+        A1 (1)
  132    52           8.2781053238         225.2586977915     SG+        A1 (1)
  133   170           8.5052539723         231.4397267558      PI        B2 (3)
  134   118           8.5052539723         231.4397267559      PI        B1 (2)
  135   119          10.1256636077         275.5333146088      PI        B1 (2)
  136   171          10.1256636077         275.5333146090      PI        B2 (3)
  137    53          10.5222926199         286.3261387258     SG+        A1 (1)
  138    54          10.5977846121         288.3803802696      PI        A1 (1)
  139   209          10.5977846121         288.3803802696      PI        A2 (4)
  140   120          10.8755581565         295.9389826852      PH        B1 (2)
  141   172          10.8755581565         295.9389826852      PH        B2 (3)
  142    55          11.1258799965         302.7505862483      DE        A1 (1)
  143   210          11.1258799965         302.7505862484      DE        A2 (4)
  144    56          11.1458361850         303.2936217448     SG+        A1 (1)
  145   173          11.3641904156         309.2353424287      PI        B2 (3)
  146   121          11.3641904156         309.2353424287      PI        B1 (2)
  147    57          11.6240905807         316.3075854690     SG+        A1 (1)
  148   174          11.8557255782         322.6106941927      PH        B2 (3)
  149   122          11.8557255782         322.6106941927      PH        B1 (2)
  150   211          12.2932802364         334.5171617551      DE        A2 (4)
  151    58          12.2932802364         334.5171617552      DE        A1 (1)
  152   123          12.6438064854         344.0554659099      PI        B1 (2)
  153   175          12.6438064854         344.0554659099      PI        B2 (3)
  154    59          12.8816537858         350.5276199907      DE        A1 (1)
  155   212          12.8816537858         350.5276199908      DE        A2 (4)
  156    60          13.3176999435         362.3930391679     SG+        A1 (1)
  157   124          14.1892231211         386.1083904974      PI        B1 (2)
  158   176          14.1892231211         386.1083904974      PI        B2 (3)
  159    61          15.5998143987         424.4925305718     SG+        A1 (1)
  160    62          18.0516197573         491.2095462077     SG+        A1 (1)
  161   125          19.4311561186         528.7486390486      PI        B1 (2)
  162   177          19.4311561186         528.7486390488      PI        B2 (3)
  163    63          20.6998949407         563.2727775722     SG+        A1 (1)
  164   213          26.5532517738         722.5507145331      DE        A2 (4)
  165    64          26.5532517738         722.5507145333      DE        A1 (1)
  166   178          27.0444725699         735.9175119508      PI        B2 (3)
  167   126          27.0444725699         735.9175119509      PI        B1 (2)
  168    65          28.2628630666         769.0716028872     SG+        A1 (1)
  169   127          33.8071309849         919.9388028842      PI        B1 (2)
  170   179          33.8071309849         919.9388028853      PI        B2 (3)
  171    66          35.0205429632         952.9574214479     SG+        A1 (1)
  172    67          36.8600680289        1003.0134432852     SG+        A1 (1)
  173    68          47.1347618535        1282.6020762628      DE        A1 (1)
  174   214          47.1347618535        1282.6020762629      DE        A2 (4)
  175   128          47.7360878589        1298.9649887450      PI        B1 (2)
  176   180          47.7360878589        1298.9649887450      PI        B2 (3)
  177    69          48.5985680285        1322.4342673154     SG+        A1 (1)
  178    70          64.2480558981        1748.2784817482     SG+        A1 (1)
  179   129          66.8737357860        1819.7268638621      PI        B1 (2)
  180   181          66.8737357860        1819.7268638623      PI        B2 (3)
  181    71          67.8511709636        1846.3242272285     SG+        A1 (1)
  182   130          98.6900820806        2685.4936612719      PH        B1 (2)
  183   182          98.6900820806        2685.4936612719      PH        B2 (3)
  184    72          98.7137713669        2686.1382795258      DE        A1 (1)
  185   215          98.7137713669        2686.1382795258      DE        A2 (4)
  186   131          98.7834671946        2688.0347994131      PI        B1 (2)
  187   183          98.7834671946        2688.0347994131      PI        B2 (3)
  188    73          98.7948899504        2688.3456284012     SG+        A1 (1)
  189   184         103.2974862521        2810.8675026633      PH        B2 (3)
  190   132         103.2974862521        2810.8675026633      PH        B1 (2)
  191    74         103.3464008229        2812.1985358022      DE        A1 (1)
  192   216         103.3464008229        2812.1985358027      DE        A2 (4)
  193   133         103.3727749633        2812.9162126492      PI        B1 (2)
  194   185         103.3727749633        2812.9162126493      PI        B2 (3)
  195    75         103.4354951024        2814.6229143992     SG+        A1 (1)
  196    76         115.2058452091        3134.9104239058      DE        A1 (1)
  197   217         115.2058452091        3134.9104239058      DE        A2 (4)
  198   186         115.4456651545        3141.4362563862      PI        B2 (3)
  199   134         115.4456651545        3141.4362563863      PI        B1 (2)
  200    77         116.0640201610        3158.2625515456     SG+        A1 (1)
  201   135         117.0574601632        3185.2954283311      PI        B1 (2)
  202   187         117.0574601632        3185.2954283320      PI        B2 (3)
  203    78         118.0934592213        3213.4863959026     SG+        A1 (1)
  204    79         122.9502737320        3345.6470376568     SG+        A1 (1)
  205    80         198.5919577753        5403.9619031804      DE        A1 (1)
  206   218         198.5919577753        5403.9619031805      DE        A2 (4)
  207   188         198.9179189579        5412.8317578926      PI        B2 (3)
  208   136         198.9179189579        5412.8317578926      PI        B1 (2)
  209    81         199.3504852766        5424.6024858382     SG+        A1 (1)
  210    82         216.7257122456        5897.4064485523     SG+        A1 (1)
  211   137         225.2875562424        6130.3860681598      PI        B1 (2)
  212   189         225.2875562424        6130.3860681599      PI        B2 (3)
  213    83         226.0869725700        6152.1392923484     SG+        A1 (1)
  214   138         395.5143566144       10762.4927980391      PI        B1 (2)
  215   190         395.5143566144       10762.4927980397      PI        B2 (3)
  216    84         396.3692892368       10785.7566974071     SG+        A1 (1)
  217    85         509.4837936982       13863.7588464071     SG+        A1 (1)
  218    86         895.5557850179       24369.3118222102     SG+        A1 (1)


  VSCF finished.

 @CHECKOUT-I, Total execution time (CPU/WALL):       49.08/       9.38 seconds.
--executable xvscf finished with status     0 in        9.40 seconds (walltime).
 --invoking executable--
/nfs/workspaces/public/cfour_mpi/bin/xvtran
 @GETMEM-I,  Allocated    3814 MB of main memory.
  Full RHF integral transformation
  Transformation of IIII integrals :
  1 pass through the AO integral file was required.
     4595968 AO integrals were read.
     8850646 MO integrals were written to HF2.
  Transformation of IIJJ integrals :
  1 pass through the AO integral file was required.
    10395446 AO integrals were read.
    14678632 MO integrals were written to HF2.
  Transformation of IJIJ integrals :
  1 pass through the AO integral file was required.
    19727067 AO integrals were read.
    27753428 MO integrals were written to HF2.
  Transformation of IJKL integrals :
  1 pass through the AO integral file was required.
    14595839 AO integrals were read.
    18777607 MO integrals were written to HF2.
  Summary of active molecular orbitals: 
------------------------------------------------------------------------
 
  Index      Eigenvalue    Symmetry    Index      Eigenvalue    Symmetry
------------------------------------------------------------------------
     1       -20.6546948        1       110         4.1794902        2
     2       -11.3458012        1       111         4.2732270        2
     3        -1.5226684        1       112         4.7687890        2
     4        -0.8173303        1       113         5.1366990        2
     5        -0.5023835        1       114         5.8368550        2
     6        -0.6464374        2       115         6.1651640        2
     7        -0.6464374        3       116         6.3626367        2
     8        -0.1534469        1       117         6.4697256        2
     9         0.1027491        1       118         7.5114978        2
    10         0.1290563        1       119         8.5052540        2
    11         0.2807350        1       120        10.1256636        2
    12         0.3062880        1       121        10.8755582        2
    13         0.4000911        1       122        11.3641904        2
    14         0.4739486        1       123        11.8557256        2
    15         0.5066625        1       124        12.6438065        2
    16         0.5365403        1       125        14.1892231        2
    17         0.6228029        1       126        19.4311561        2
    18         0.7768300        1       127        27.0444726        2
    19         0.8151640        1       128        33.8071310        2
    20         0.8985207        1       129        47.7360879        2
    21         0.9505817        1       130        66.8737358        2
    22         1.0159142        1       131        98.6900821        2
    23         1.2202884        1       132        98.7834672        2
    24         1.4746130        1       133       103.2974863        2
    25         1.4997159        1       134       103.3727750        2
    26         1.6133525        1       135       115.4456652        2
    27         1.7506921        1       136       117.0574602        2
    28         1.7623079        1       137       198.9179190        2
    29         2.1489151        1       138       225.2875562        2
    30         2.1790639        1       139       395.5143566        2
    31         2.2328864        1       140         0.0168906        3
    32         2.3827192        1       141         0.1594143        3
    33         2.4321521        1       142         0.2305576        3
    34         2.5436272        1       143         0.3646884        3
    35         2.9425889        1       144         0.4572580        3
    36         3.0241185        1       145         0.5716189        3
    37         3.4869163        1       146         0.8009073        3
    38         3.7059098        1       147         0.8538214        3
    39         3.9246742        1       148         0.9392497        3
    40         4.1465853        1       149         1.1429571        3
    41         4.2492780        1       150         1.4219041        3
    42         4.3763293        1       151         1.5085719        3
    43         4.5393777        1       152         1.8030908        3
    44         5.0196371        1       153         1.9784193        3
    45         5.1528673        1       154         2.2974119        3
    46         5.8562575        1       155         2.3975086        3
    47         5.9310844        1       156         2.4028484        3
    48         6.2806178        1       157         2.6149439        3
    49         6.3491420        1       158         2.8633681        3
    50         6.6076814        1       159         3.7498199        3
    51         7.0757112        1       160         4.0642261        3
    52         7.3654310        1       161         4.1794902        3
    53         7.8086597        1       162         4.2732270        3
    54         8.2781053        1       163         4.7687890        3
    55        10.5222926        1       164         5.1366990        3
    56        10.5977846        1       165         5.8368550        3
    57        11.1258800        1       166         6.1651640        3
    58        11.1458362        1       167         6.3626367        3
    59        11.6240906        1       168         6.4697256        3
    60        12.2932802        1       169         7.5114978        3
    61        12.8816538        1       170         8.5052540        3
    62        13.3176999        1       171        10.1256636        3
    63        15.5998144        1       172        10.8755582        3
    64        18.0516198        1       173        11.3641904        3
    65        20.6998949        1       174        11.8557256        3
    66        26.5532518        1       175        12.6438065        3
    67        28.2628631        1       176        14.1892231        3
    68        35.0205430        1       177        19.4311561        3
    69        36.8600680        1       178        27.0444726        3
    70        47.1347619        1       179        33.8071310        3
    71        48.5985680        1       180        47.7360879        3
    72        64.2480559        1       181        66.8737358        3
    73        67.8511710        1       182        98.6900821        3
    74        98.7137714        1       183        98.7834672        3
    75        98.7948900        1       184       103.2974863        3
    76       103.3464008        1       185       103.3727750        3
    77       103.4354951        1       186       115.4456652        3
    78       115.2058452        1       187       117.0574602        3
    79       116.0640202        1       188       198.9179190        3
    80       118.0934592        1       189       225.2875562        3
    81       122.9502737        1       190       395.5143566        3
    82       198.5919578        1       191         0.2807350        4
    83       199.3504853        1       192         0.5066625        4
    84       216.7257122        1       193         0.8151640        4
    85       226.0869726        1       194         0.9505817        4
    86       396.3692892        1       195         1.4746130        4
    87       509.4837937        1       196         1.7623079        4
    88       895.5557850        1       197         2.1489151        4
    89         0.0168906        2       198         2.2328864        4
    90         0.1594143        2       199         2.4321521        4
    91         0.2305576        2       200         3.0241185        4
    92         0.3646884        2       201         3.7059098        4
    93         0.4572580        2       202         4.1465853        4
    94         0.5716189        2       203         4.3763293        4
    95         0.8009073        2       204         5.1528673        4
    96         0.8538214        2       205         5.9310844        4
    97         0.9392497        2       206         6.3491420        4
    98         1.1429571        2       207         6.6076814        4
    99         1.4219041        2       208         7.3654310        4
   100         1.5085719        2       209        10.5977846        4
   101         1.8030908        2       210        11.1258800        4
   102         1.9784193        2       211        12.2932802        4
   103         2.2974119        2       212        12.8816538        4
   104         2.3975086        2       213        26.5532518        4
   105         2.4028484        2       214        47.1347619        4
   106         2.6149439        2       215        98.7137714        4
   107         2.8633681        2       216       103.3464008        4
   108         3.7498199        2       217       115.2058452        4
   109         4.0642261        2       218       198.5919578        4
------------------------------------------------------------------------
  -20.6546948105701       -11.3458011774993       -1.52266841158488     
 -0.817330258638717      -0.502383521958942      -0.646437427306370     
 -0.646437427307128      -0.153446935997138       0.102749077917029     
  0.129056250435414       0.280735004809971       0.306287987618660     
  0.400091136188777       0.473948558842228       0.506662497707948     
  0.536540257689038       0.622802877063618       0.776830007435463     
  0.815164002619416       0.898520741066557       0.950581717051635     
   1.01591420871294        1.22028838264328        1.47461301617266     
   1.49971590610126        1.61335245901854        1.75069214568514     
   1.76230792043708        2.14891509832733        2.17906391407492     
   2.23288637578414        2.38271924471377        2.43215206765653     
   2.54362721858009        2.94258885812525        3.02411846104758     
   3.48691631843440        3.70590978410051        3.92467419316731     
   4.14658528536204        4.24927804558975        4.37632930565856     
   4.53937771925159        5.01963705805911        5.15286728900118     
   5.85625751223620        5.93108440808063        6.28061778552549     
[...]
 Convergence information after    12 iterations: 
 Largest element of residual vector :  0.11957787E-05.
 Largest element of DIIS residual   :  0.10788268E-05.
 Convergence information after    13 iterations: 
 Largest element of residual vector :  0.79384924E-06.
 Largest element of DIIS residual   :  0.74129572E-06.
 Convergence information after    14 iterations: 
 Largest element of residual vector :  0.54067375E-06.
 Largest element of DIIS residual   :  0.30950121E-06.
 Convergence information after    15 iterations: 
 Largest element of residual vector :  0.22504458E-06.
 Largest element of DIIS residual   :  0.11729056E-06.
 Convergence information after    16 iterations: 
 Largest element of residual vector :  0.84749513E-07.
 Largest element of DIIS residual   :  0.39058445E-07.
 Perturbed amplitude equations converged in    16 iterations.
  Dominant contributions to perturbed wavefunction:
    7    7  141   37   0.2539352478 ABAB
    7    7   37  141   0.2539352478 ABAB
    7    7  141   27   0.2537396681 ABAB
    7    7   27  141   0.2537396681 ABAB
    7    7  142   37   0.1744591272 ABAB
    7    7   37  142   0.1744591272 ABAB
    7    7  141   55   0.1730596083 ABAB
    7    7   55  141   0.1730596083 ABAB
    7    6   37   90   0.1723646564 ABAB
    6    7   90   37   0.1723646564 ABAB
    7    6   27   90   0.1719950998 ABAB
    6    7   90   27   0.1719950998 ABAB
    5    5  141   44   0.1719342054 ABAB
    5    5   44  141   0.1719342054 ABAB
    7    7  142   27   0.1707281233 ABAB
    7    7   27  142   0.1707281233 ABAB
    5    5  141   27   0.1688780456 ABAB
    5    5   27  141   0.1688780456 ABAB
    5    5  141   55   0.1588612538 ABAB
    5    5   55  141   0.1588612538 ABAB
  norm of converged amps    2.58418957043517     
 Starting iterative solution of the perturbed Lambda equations.
 The DIIS procedure is used to accelerate convergence.
 Convergence criterion is 10**(-7).
 Maximum number of iterations is 100.
 Convergence information after     1 iterations: 
 Largest element of residual vector : -0.91833844E-01.
 Largest element of DIIS residual   : -0.91833844E-01.
 Convergence information after     2 iterations: 
 Largest element of residual vector :  0.18926148E-01.
 Largest element of DIIS residual   :  0.10219660E-01.
 Convergence information after     3 iterations: 
 Largest element of residual vector : -0.95725426E-02.
 Largest element of DIIS residual   : -0.76102021E-02.
 Convergence information after     4 iterations: 
 Largest element of residual vector : -0.30737170E-02.
 Largest element of DIIS residual   : -0.27246515E-02.
 Convergence information after     5 iterations: 
 Largest element of residual vector : -0.19376738E-02.
 Largest element of DIIS residual   : -0.11815828E-02.
 Convergence information after     6 iterations: 
 Largest element of residual vector : -0.87590368E-03.
 Largest element of DIIS residual   : -0.41985451E-03.
 Convergence information after     7 iterations: 
 Largest element of residual vector : -0.29087630E-03.
 Largest element of DIIS residual   : -0.88613801E-04.
 Convergence information after     8 iterations: 
 Largest element of residual vector :  0.71333945E-04.
 Largest element of DIIS residual   :  0.39116898E-04.
 Convergence information after     9 iterations: 
 Largest element of residual vector :  0.24564203E-04.
 Largest element of DIIS residual   :  0.85198101E-05.
 Convergence information after    10 iterations: 
 Largest element of residual vector :  0.64640852E-05.
 Largest element of DIIS residual   :  0.31270727E-05.
 Convergence information after    11 iterations: 
 Largest element of residual vector :  0.21000194E-05.
 Largest element of DIIS residual   :  0.15746115E-05.
 Convergence information after    12 iterations: 
 Largest element of residual vector :  0.10370454E-05.
 Largest element of DIIS residual   :  0.98574722E-06.
 Convergence information after    13 iterations: 
 Largest element of residual vector :  0.72691579E-06.
 Largest element of DIIS residual   :  0.67433062E-06.
 Convergence information after    14 iterations: 
 Largest element of residual vector :  0.49185440E-06.
 Largest element of DIIS residual   :  0.29833203E-06.
 Convergence information after    15 iterations: 
 Largest element of residual vector :  0.21687367E-06.
 Largest element of DIIS residual   :  0.10973870E-06.
 Convergence information after    16 iterations: 
 Largest element of residual vector :  0.79037208E-07.
 Largest element of DIIS residual   :  0.34845848E-07.
 Perturbed Lambda equations converged in    16 iterations.
  Dominant contributions to perturbed wavefunction:
    7    7  141   37   0.2403020399 ABAB
    7    7   37  141   0.2403020399 ABAB
    7    7  141   27   0.2391570951 ABAB
    7    7   27  141   0.2391570951 ABAB
    7    7  142   37   0.1650754063 ABAB
    7    7   37  142   0.1650754063 ABAB
    5    5  141   44   0.1643109233 ABAB
    5    5   44  141   0.1643109233 ABAB
    7    7  141   55   0.1619829149 ABAB
    7    7   55  141   0.1619829149 ABAB
    7    6   37   90   0.1613727799 ABAB
    6    7   90   37   0.1613727799 ABAB
    7    7  142   27   0.1608689181 ABAB
    7    7   27  142   0.1608689181 ABAB
    5    5  141   27   0.1605564990 ABAB
    5    5   27  141   0.1605564990 ABAB
    7    6   27   90   0.1601490125 ABAB
    6    7   90   27   0.1601490125 ABAB
    5    5  141   55   0.1513658088 ABAB
    5    5   55  141   0.1513658088 ABAB
        The DBOC first-order density matrix is being calculated 
             (Symmetry block 3, perturbation   2)
 term   7.78059334158499     
 final tnorm  0.888358863793920     
  norm contr. I: |<0|L dT/dx|0>|^2   0.000000000000000E+000
  norm contr. II: <0|[nabla(1+L)e-T][nabla e^T]|0>   7.78059334158499     
  total norm contribution   7.78059334158499     
 oo  9.307654887949207E-003
 vv  -57.2083115482212     
 vo  0.447543764942855     
  Correlated perturbed 1-el contribution to DBOC  -56.7514601283904       cm**-1
  SUM_I |dc_I/dx|^2 contribution to DBOC   29.2916745044463       cm**-1
 
 
  The total diagonal Born-Oppenheimer correction (DBOC) is:      0.0047641513 a.u.
  The total diagonal Born-Oppenheimer correction (DBOC) is:       1045.610342 cm-1
 
 Total CC energy including DBOC  -113.298785178455     
 First-order density matrix is being calculated  (Symmetry block 3, perturbation   2)
 Calculation of the contributions of <pq||rs> to dI(i,j)/dx required   1.4 seconds.
 Calculation of the contributions of <pq||rs> to dI(a,b)/dx required  13.2 seconds.
 Calculation of the contributions of <pq||rs> to dI(i,a)/dx required   8.9 seconds.
 First-order Z-vector equations are solved for 1 perturbation.
 Convergence reached after  19 iterations.
        U*G(pq,rs) contribution is being calculated
             (Symmetry block 3, perturbation   2)

 CCSD contribution to force constants 

        0.0000000000        0.0000000000        0.0000000000
        0.0000000000        0.0000000000        0.0000000000
        0.0000000000        0.0000000000        0.0000000000
        0.0000000000        0.0000000000        0.0000000000
        0.0000000000        0.0000000000        0.0000000000
        0.0000000000        0.0000000000        0.0000000000
        0.0000000000        0.0000000000        0.0000000000
        0.0000000000        0.0000000000        0.0000000000
        0.0000000000        0.0000000000        0.0000000000
        0.0000000000        0.0000000000        0.0000000000
        0.0000000000        0.0000000000        0.0000000000
        0.0000000000      -28.0147715023       28.0147715023

 CCSD contribution to dipole derivatives 

        0.0000000000        0.0000000000        0.0000000000
        0.0000000000        0.0000000000        0.0000000000
        0.0000000000        0.0000000000        0.0000000000
        0.0000000000        0.0000000000       -0.0614216375
        0.0000000000        0.0000000000        0.0000000000
        0.0000000000        0.0000000000        0.0000000000
 @CHECKOUT-I, Total execution time (CPU/WALL):     1048.82/     219.77 seconds.
--executable xsdcc finished with status     0 in      219.81 seconds (walltime).
 --invoking executable--
/nfs/workspaces/public/cfour_mpi/bin/xanti
 @GETMEM-I,  Allocated    3814 MB of main memory.
 CCSD MO derivative gammas will be sorted to Mulliken order.
 @CHECKOUT-I, Total execution time (CPU/WALL):        8.34/       8.83 seconds.
--executable xanti finished with status     0 in        8.86 seconds (walltime).
 --invoking executable--
/nfs/workspaces/public/cfour_mpi/bin/xbcktrn
 @GETMEM-I,  Allocated    3814 MB of main memory.
 CCSD MO derivative gammas will be transformed to the AO basis.
 @CHECKOUT-I, Total execution time (CPU/WALL):       18.17/       3.24 seconds.
--executable xbcktrn finished with status     0 in        3.27 seconds (walltime).
 --invoking executable--
/nfs/workspaces/public/cfour_mpi/bin/xvdint
 @GETMEM-I,  Allocated    3814 MB of main memory.
 One- and two-electron integral derivatives are calculated
 for RHF-CC/MBPT hessians and dipole derivatives.
 Spherical gaussians are used.
  magnet F F
                    8722  records have been written to the Sort file.
  Total length of Sort file :             178609116  words.
 Evaluation of 2el integral derivatives

                      Two-electron integral gradient
                      ------------------------------

                         C #1 z     0.0000000000
                         O #2 z     0.0000000000


 C #1       0.0000000000           -0.5571402069            0.0000000000
 O #2       0.0000000000            0.5571402069            0.0000000000


 Evaluation of 2e integral derivatives required  263.13 seconds.
  contribution to Hessian
        0.0000000000        0.0000000000        0.0000000000
        0.0000000000       -0.5571402069        0.5571402069
 @CHECKOUT-I, Total execution time (CPU/WALL):      263.11/      64.92 seconds.
--executable xvdint finished with status     0 in       64.95 seconds (walltime).
 --invoking executable--
/nfs/workspaces/public/cfour_mpi/bin/xanti
 @GETMEM-I,  Allocated    3814 MB of main memory.
 CCSD MO gammas will be sorted to Mulliken order.
 @CHECKOUT-I, Total execution time (CPU/WALL):       10.37/       8.98 seconds.
--executable xanti finished with status     0 in        9.01 seconds (walltime).
 --invoking executable--
/nfs/workspaces/public/cfour_mpi/bin/xbcktrn
 @GETMEM-I,  Allocated    3814 MB of main memory.
 CCSD MO gammas will be transformed to the AO basis.
 @CHECKOUT-I, Total execution time (CPU/WALL):       24.42/       3.73 seconds.
--executable xbcktrn finished with status     0 in        3.76 seconds (walltime).
 --invoking executable--
/nfs/workspaces/public/cfour_mpi/bin/xvdint
 @GETMEM-I,  Allocated    3814 MB of main memory.
 One- and two-electron integral derivatives are calculated
 for RHF-CC/MBPT hessians and dipole derivatives.
 Spherical gaussians are used.
  magnet F F

                     Kinetic energy integral gradient
                     --------------------------------

                         C #1 z    -1.4059093768
                         O #2 z     1.4059093768


 C #1       0.0000000000            0.0000000000           -1.4059093768
 O #2       0.0000000000            0.0000000000            1.4059093768



                   Nuclear attraction integral gradient
                   ------------------------------------

                         C #1 z    22.7016317267
                         O #2 z   -22.7016317267


 C #1       0.0000000000            0.0000000000           22.7016317267
 O #2       0.0000000000            0.0000000000          -22.7016317267



                      Reorthonormalization gradient
                      -----------------------------

                         C #1 z     0.0000000000
                         O #2 z     0.0000000000


 C #1       0.0000000000            0.0000000000            0.0000000000
 O #2       0.0000000000            0.0000000000            0.0000000000



                     Kinetic energy integral Hessian
                     -------------------------------


           Symmetry 1

           C #1 z      O #2 z

 C #1 z    1.054416
 O #2 z   -1.054416    1.054416


           Symmetry 2

           C #1 x      O #2 x

 C #1 x   -1.935825
 O #2 x    1.935825   -1.935825


           Symmetry 3

           C #1 y      O #2 y

 C #1 y   -1.935825
 O #2 y    1.935825   -1.935825




           C #1 x      C #1 y      C #1 z      O #2 x      O #2 y      O #2 z

 C #1 x   -1.935825
 C #1 y    0.000000   -1.935825
 C #1 z    0.000000    0.000000    1.054416

 O #2 x    1.935825    0.000000    0.000000   -1.935825
 O #2 y    0.000000    1.935825    0.000000    0.000000   -1.935825
 O #2 z    0.000000    0.000000   -1.054416    0.000000    0.000000    1.054416




                   Nuclear attraction integral Hessian
                   -----------------------------------


           Symmetry 1

           C #1 z      O #2 z

 C #1 z  -13.364094
 O #2 z   13.364094  -13.364094


           Symmetry 2

           C #1 x      O #2 x

 C #1 x   20.410613
 O #2 x  -20.410613   20.410613


           Symmetry 3

           C #1 y      O #2 y

 C #1 y   20.410613
 O #2 y  -20.410613   20.410613




           C #1 x      C #1 y      C #1 z      O #2 x      O #2 y      O #2 z

 C #1 x   20.410613
 C #1 y    0.000000   20.410613
 C #1 z    0.000000    0.000000  -13.364094

 O #2 x  -20.410613    0.000000    0.000000   20.410613
 O #2 y    0.000000  -20.410613    0.000000    0.000000   20.410613
 O #2 z    0.000000    0.000000   13.364094    0.000000    0.000000  -13.364094




                Highest order reorthonormalization Hessian
                ------------------------------------------


           Symmetry 1

           C #1 z      O #2 z

 C #1 z    0.000000
 O #2 z    0.000000    0.000000


           Symmetry 2

           C #1 x      O #2 x

 C #1 x    0.000000
 O #2 x    0.000000    0.000000


           Symmetry 3

           C #1 y      O #2 y

 C #1 y    0.000000
 O #2 y    0.000000    0.000000




           C #1 x      C #1 y      C #1 z      O #2 x      O #2 y      O #2 z




                Electronic contributions to dipole moment
                -----------------------------------------

                               au             Debye

                    z      0.72162159      1.83417945

  Conversion factor used: 1 a.u. =   2.54174691 Debye 



   Electronic contributions to static part of dipole moment derivatives
   --------------------------------------------------------------------


                     Total dipole moment derivatives
                     -------------------------------


           Symmetry 1
                              Ez

               C #1 z    -5.71665237
               O #2 z    -8.28334763

           Symmetry 2
                              Ex

               C #1 x    -5.71450387
               O #2 x    -8.28549613

           Symmetry 3
                              Ey

               C #1 y    -5.71450387
               O #2 y    -8.28549613



                       Ex          Ey          Ez

      C #1    x   -5.714504    0.000000    0.000000
      C #1    y    0.000000   -5.714504    0.000000
      C #1    z    0.000000    0.000000   -5.716652

      O #2    x   -8.285496    0.000000    0.000000
      O #2    y    0.000000   -8.285496    0.000000
      O #2    z    0.000000    0.000000   -8.283348

 Evaluation of 1e integral derivatives required    1.71 seconds.
                    8815  records have been written to the Sort file.
  Total length of Sort file :             180513570  words.
 Evaluation of 2el integral derivatives

                      Two-electron integral gradient
                      ------------------------------

                         C #1 z   -10.3767013844
                         O #2 z    10.3767013844


 C #1       0.0000000000            0.0000000000          -10.3767013844
 O #2       0.0000000000            0.0000000000           10.3767013844


 Evaluation of 2e integral derivatives required  560.84 seconds.

                            Molecular gradient
                            ------------------

                         C #1 z     0.3597815528
                         O #2 z    -0.3597815528


 C #1       0.0000000000            0.0000000000            0.3597815528
 O #2       0.0000000000            0.0000000000           -0.3597815528


  Molecular gradient norm 0.509E+00

                            Molecular hessian
                            -----------------


           Symmetry 1

           C #1 z      O #2 z

 C #1 z   32.444523
 O #2 z  -32.444523   32.444523


           Symmetry 2

           C #1 x      O #2 x

 C #1 x   26.199835
 O #2 x  -26.199835   26.199835


           Symmetry 3

           C #1 y      O #2 y

 C #1 y   26.199835
 O #2 y  -26.199835   26.199835




           C #1 x      C #1 y      C #1 z      O #2 x      O #2 y      O #2 z

 C #1 x   26.199835
 C #1 y    0.000000   26.199835
 C #1 z    0.000000    0.000000   32.444523

 O #2 x  -26.199835    0.000000    0.000000   26.199835
 O #2 y    0.000000  -26.199835    0.000000    0.000000   26.199835
 O #2 z    0.000000    0.000000  -32.444523    0.000000    0.000000   32.444523




                           Total dipole moment
                           -------------------

                               au             Debye

                    z      0.71929779      1.82827294

  Conversion factor used: 1 a.u. =   2.54174691 Debye 



                     Total dipole moment derivatives
                     -------------------------------


           Symmetry 1
                              Ez

               C #1 z     1.81072792
               O #2 z    -1.81072792

           Symmetry 2
                              Ex

               C #1 x     0.00872479
               O #2 x    -0.00872479

           Symmetry 3
                              Ey

               C #1 y     0.00872479
               O #2 y    -0.00872479



                       Ex          Ey          Ez

      C #1    x    0.008725    0.000000    0.000000
      C #1    y    0.000000    0.008725    0.000000
      C #1    z    0.000000    0.000000    1.810728

      O #2    x   -0.008725    0.000000    0.000000
      O #2    y    0.000000   -0.008725    0.000000
      O #2    z    0.000000    0.000000   -1.810728

 @CHECKOUT-I, Total execution time (CPU/WALL):      562.54/      98.17 seconds.
--executable xvdint finished with status     0 in       98.20 seconds (walltime).
 --invoking executable--
/nfs/workspaces/public/cfour_mpi/bin/xjoda
  @GTFLGS-I, Hessian will be transformed to curvilinear coordinates.
  @GTFLGS-I, Hessian will be transformed to curvilinear coordinates.
  igrd and ihes are                      0                     1
  gradient from JOBARC 
   0.000000000000000   0.000000000000000   0.359781552805467
   0.000000000000000   0.000000000000000  -0.359781552805467
 
  @PROJFCM-I, Projecting force constant matrix onto totally symmetric subspace.
  Largest difference between matrix elements of symmetrized
  and unsymmetrized FCM :     0.2002984445E-09.
  read isotopes from ZMAT file 
 
  Summary of diagonal Born-Oppenheimer correction at the correlated level
  The total diagonal Born-Oppenheimer correction (DBOC) is:      0.0047641513 a.u.
  The total diagonal Born-Oppenheimer correction (DBOC) is:       1045.610342 cm-1
  The total diagonal Born-Oppenheimer correction (DBOC) is:            12.508 kJ/mole
  hellooooooo 
  readis is  F
 
 @CHECKOUT-I, Total execution time (CPU/WALL):        0.01/       0.01 seconds.
--executable xjoda finished with status     0 in        0.04 seconds (walltime).
  The final electronic energy is      -113.298785178454764 a.u. 
  This computation required                         2316.76 seconds (walltime).
