 --invoking executable--
/nfs/workspaces/public/cfour_mpi/bin/xjoda


   *************************************************************************
         <<<     CCCCCC     CCCCCC   |||     CCCCCC     CCCCCC   >>>
       <<<      CCC        CCC       |||    CCC        CCC         >>>
      <<<      CCC        CCC        |||   CCC        CCC            >>>
    <<<        CCC        CCC        |||   CCC        CCC              >>>
      <<<      CCC        CCC        |||   CCC        CCC            >>>
       <<<      CCC        CCC       |||    CCC        CCC         >>>
         <<<     CCCCCC     CCCCCC   |||     CCCCCC     CCCCCC   >>>
   *************************************************************************

     ****************************************************************
     * CFOUR Coupled-Cluster techniques for Computational Chemistry *
     ****************************************************************
 

   Department of Chemistry                Institut fuer Physikalische Chemie
   University of Florida                  Universitaet Mainz
   Gainesville, FL 32611, USA             D-55099 Mainz, Germany

   Department of Chemistry                Fakultaet fuer Chemie und Biowiss.
   Johns Hopkins University               Karlsruher Institut fuer Technologie
   Baltimore, MD 21218, USA               D-76131 Karlsruhe, Germany

   Department of Chemistry                Department of Physical Chemistry
   Southern Methodist University          Eotvos Lorand University
   Dallas, TX 75275, USA                  H-1053 Budapest, Hungary

 
                       Version 2.1
 
                     vincent.theory.phys.ucl.ac.uk                     
                     Fri  7 Feb 11:10:01 GMT 2025                      
                     integer*8 version is running
 
********************************************************************************
*                          Input from ZMAT file                                *
********************************************************************************
Carbon Monoxide DBOC calculation                                                
C                                                                               
O 1 r*                                                                          
                                                                                
r=1.12825                                                                       
                                                                                
                                                                                
*CFOUR(CALC=CCSD,BASIS=AUG-PCVQZ,SCF_CONV=10                                    
CC_CONV=14,DBOC=OFF,MEMORY=500000000                                            
ZFIELD=0)                                                                       
                                                                                
%isotopes                                                                       
12                                                                              
16                                                                              
                                                                                
%integrals                                                                      
dipole                                                                          
********************************************************************************
  @GTFLGS-I, Hessian will be transformed to curvilinear coordinates.
    -------------------------------------------------------------------
                    CFOUR Control Parameters 
    -------------------------------------------------------------------
        External           Internal           Value            Units
          Name               Name
    -------------------------------------------------------------------
       ABCDTYPE             IABCDT         STANDARD    [  0]    ***   
       ANHARMONIC           IANHAR         OFF         [  0]    ***   
       ANH_ALGORIT          IANALG         STANDARD    [  0]    ***   
       ANH_DERIVAT          IANDER         SECOND      [  1]    ***   
       ANH_MODE             ANHMOD         VIBRATION   [  0]    ***   
       ANH_STEPSIZ          ICUBST             50000          x 10-6  
       ANH_SYMMETR          IANHSM         ABELIAN     [  0]    ***   
       AO_LADDERS           IAOLAD         SINGLEPASS  [  1]    ***   
       AV_SCF               IAVSCF         OFF         [  0]    ***   
       BASIS                IBASIS         AUG-PCVQZ   [ 52]    ***   
       BOTHVECTORS          BOTHVC         OFF         [  0]    ***   
       BOX_POTENT           IPIAB          OFF         [  0]    ***   
       BREIT                IBREIT         OFF         [  0]    ***   
       BRUCK_CONV           IBRTOL          10D-  4             ***   
       BRUECKNER            IBRKNR         OFF         [  0]    ***   
       BUFFERSIZE           IBUFFS              4096            ***   
       CACHE_RECS           ICHREC             10               ***   
       CALCLEVEL            ICLLVL         CCSD        [ 10]    ***   
       CCORBOPT             ICCORB         OFF         [  0]  x 0.01  
       CC_CONV              ICCCNV          10D- 14             ***   
       CC_EXPORDER          ICCEOR              5               ***   
       CC_EXTRAPOL          ICCEXT         DIIS        [  1]    ***   
       CC_GUESS             ICCGES         MP2         [  0]    ***   
       CC_MAXCYC            ICCCYC            100              cycles 
       CC_PROGRAM           ICCPRO         VCC         [  0]    ***   
       CHARGE               ICHRGE              0               ***   
       CHOLESKY             ICHOLE         OFF         [  0]    ***   
       CIS_CONV             ICISTL              5               ***   
       COMM_SIZE            IPSIZE            ***               ***   
       CONSTANT             ICONST         OLD         [  1]    ***   
       CONTINUUM            ICONTU         NONE        [  0]    ***   
       CONTRACTION          ICNTYP         GENERAL     [  1]    ***   
       COORDINATES          ICOORD         INTERNAL    [  0]    ***   
       CPHF_CONVER          ICPHFT          10D- 16             ***   
       CPHF_MAXCYC          ICPHFC             64              cycles 
       CUBIC                ICUBIC         OFF         [  0]    ***   
       CURVILINEAR          ICURVY         ON          [  1]    ***   
       DBOC                 IDBOC          OFF         [  0]    ***   
       DCT                  IDCT           OFF         [  0]    ***   
       DERIV_LEV            IDRLVL         FIRST       [  1]    ***   
       DEVMEM_SIZE          IDVMEM          50000000           MByte  
       DIAG_MRCC            IEOMST          10D-  0             ***   
       DIFF_TYPE            IDIFTY         RELAXED     [  0]    ***   
       DIRECT               IDIRCT         OFF         [  0]    ***   
       DROPMO               IDRPMO      NONE         
       ECP                  IECP           OFF         [  0]    ***   
       EIGENVECTOR          IVEC                1               ***   
       EL_ANHARM            IELANH         OFF         [  0]    ***   
       EOMFOLLOW            IEOMSR         ENERGY      [  0]    ***   
       EOMIP                IEOMIP         OFF         [  0]    ***   
       EOMLEVEL             HBARFM         SAME        [  0]    ***   
       EOM_MRCC             IMRCCE         NEW         [  1]    ***   
       EOM_NONIT            EOMNON         OFF         [  0]    ***   
       EOM_NSING            IEOMSI          10D-  0             ***   
       EOM_NSTATES          IMRCCD         DAVIDSON    [  0]    ***   
       EOM_NTRIP            IEOMTR          10D-  0             ***   
       EOM_ORDER            IEXORD         ENERGY      [  0]    ***   
       EOM_PROPSTA          IEOMST              0               ***   
       ESTATE_CONV          IEXTOL          10D-  5             ***   
       ESTATE_DIAG          IEXDIG         ITERATIVE   [  0]    ***   
       ESTATE_LOCK          IESLOC         ON          [  1]    ***   
       ESTATE_MAXC          IEXMXC             40               ***   
       ESTATE_PROP          IEXPRP         OFF         [  0]    ***   
       EVAL_HESS            IRECAL              0            # of cyc.
       EXCITATION           IEXCIT              0               ***   
       EXCITE               IEXCIT         NONE        [  0]    ***   
       EXTERN_POT           IEXPOT         OFF         [  0]    ***   
       FCGRADNEW            IFCGNW         OFF         [  0]    ***   
       FC_FIELD             IFINFC              0             x 10-6  
       FD_CALTYPE           IFDCAL         GRADONLY    [  0]    ***   
       FD_PROJECT           IFDPRJ         OFF         [  1]    ***   
       FD_STEPSIZE          IDISFD              0            10-4 bohr
       FD_USEGROUP          IFDGRP         FULL        [  0]    ***   
       FILE_RECSIZ          IFLREC              4096           words  
       FINITE_PERT          IFIPER              0             x 10-6  
       FIXGEOM              IFIXGM         OFF         [  0]    ***   
       FOCK                 IFOCK          AO          [  1]    ***   
       FREQ_ALGORI          IVIALG         STANDARD    [  0]    ***   
       FROZEN_CORE          IFROCO         OFF         [  0]    ***   
       GAMMA_ABCD           IGABCD         STORE       [  0]    ***   
       GAMMA_ABCI           IGABCI         STORE       [  0]    ***   
       GENBAS_1             IGNBS1              0               ***   
       GENBAS_2             IGNBS2              0               ***   
       GENBAS_3             IGNBS3              0               ***   
       GENBAS_4             IGNBS4              0               ***   
       GEO_CONV             ICONTL              5              H/bohr 
       GEO_MAXCYC           IOPTCY             50               ***   
       GEO_MAXSTEP          IMXSTP            300            millibohr
       GEO_METHOD           INR            NR          [  0]    ***   
       GIAO                 IGIAO          OFF         [  1]    ***   
       GIMIC                IGIMIC         OFF         [  0]    ***   
       GRID                 IGRID          OFF         [  0]    ***   
       GRID_ALGO            IGALGO         SERIAL      [  0]    ***   
       GUESS                IGUESS         MOREAD      [  0]    ***   
       HBAR                 IHBAR          OFF         [  0]    ***   
       HESS_TYPE            IHESTP         SCF         [  0]    ***   
       HF2_FILE             IHF2Fl         USE         [  1]    ***   
       HFSTABILITY          ISTABL         OFF         [  0]    ***   
       INCORE               INCORE         OFF         [  0]    ***   
       INPUT_MRCC           IMRCC          ON          [  1]    ***   
       INTEGRALS            INTTYP         VMOL        [  1]    ***   
       JODA_PRINT           IJPRNT              0               ***   
       KEYWORD_OUT          IDMPKW         NO          [  0]    ***   
       LINDEP_TOL           ILINDP              8               ***   
       LINEQ_CONV           IZTACN          10D-  7           cycles  
       LINEQ_EXPOR          ILMAXD              5               ***   
       LINEQ_MAXCY          ILMAXC            100               ***   
       LINEQ_TYPE           ILTYPE         DIIS        [  1]    ***   
       LOCK_ORBOCC          ILOCOC         OFF         [  0]    ***   
       MEMORY_SIZE          IMEMSZ         500000000           words  
       MEM_UNIT             IMEMU          INTEGERWORDS[  0]    ***   
       MRCC                 IMRCCC         OFF         [  0]    ***   
       MULTIPLICTY          IMULTP              1               ***   
       NACOUPLING           IVCOUP         OFF         [  0]    ***   
       NEGEVAL              IDIE           ABORT       [  0]    ***   
       NEWNORM              INEWNO         OFF         [  0]    ***   
       NON-HF               INONHF         OFF         [  0]    ***   
       NTOP_TAMP            ITOPT2             15               ***   
       NUC_MODEL            INUCMO         POINT       [  0]    ***   
       OCCUPATION           IOCCU   ESTIMATED BY SCF 
       OPEN-SHELL           IOPEN          SPIN-ORBITAL[  0]    ***   
       OPTVIB               IOPTVB         OFF         [  0]    ***   
       ORBITALS             IORBTP         STANDARD    [  0]    ***   
       PARALLEL             IPARAL         ON          [  1]    ***   
       PARA_INT             IPINTS         ON          [  1]    ***   
       PARA_PRINT           IPPRIN              0               ***   
       PERT_ORB             IPTORB         STANDARD    [  0]    ***   
       POINTS               IGRDFD              0               ***   
       PRINT                IPRNT               0               ***   
       PROPS                IPROPS         OFF         [  0]    ***   
       PROP_INTEGR          IINTYP         INTERNAL    [  0]    ***   
       PSI                  IPSI           OFF         [  0]    ***   
       QC_ALG               IQCALG         FLM         [  0]    ***   
       QC_LINALG            IQCLIN         TRIDIAG     [  2]    ***   
       QC_MAXCYC            IQCMAX          10D-100           cycles  
       QC_MAXSCFCY          IQCMSC          10D- 15           cycles  
       QC_RTRUST            IQCRTR          10D-  0           x 10-3  
       QC_SKIPSCF           IQCSKI         OFF         [  0]    ***   
       QC_START             IQCSTA          10D-  1             ***   
       QRHFGUESS            IQGUES         OFF         [  0]    ***   
       QUARTIC              IQUART         OFF         [  0]    ***   
       RAMAN_INT            IRAMIN         OFF         [  0]    ***   
       RAMAN_ORB            IRAMRE         UNRELAXED   [  0]    ***   
       RDO                  IRDOFM         ON          [  1]    ***   
       REDUCE_REPR          REDREP         Ir          [  0]    ***   
       REFERENCE            IREFNC         RHF         [  0]    ***   
       RELATIVIST           IRELAT         OFF         [  0]    ***   
       RELAX_DENS           IRDENS         ON          [  1]    ***   
       RESET_FLAGS          IRESET         OFF         [  0]    ***   
       RESTART_CC           ICCRES         OFF         [  0]    ***   
       ROT_EVEC             ROTVEC              0               ***   
       SAVE_INTS            ISVINT         OFF         [  0]    ***   
       SCALE_ON             ISTCRT              0               ***   
       SCF_CONV             ISCFCV          10D- 10             ***   
       SCF_DAMPING          IDAMP               0             x 10-3  
       SCF_EXPORDE          IRPPOR              6               ***   
       SCF_EXPSTAR          IRPPLS              8               ***   
       SCF_EXTRAPO          IRPP           ON          [  1]    ***   
       SCF_MAXCYC           ISCFCY            150              cycles 
       SCF_NOSTOP           ISCFST         OFF         [  0]    ***   
       SCF_PRINT            ISCFPR              0               ***   
       SCF_PROG             ISCFPR         SCF         [  0]    ***   
       SD_FIELD             IFINSD              0             x 10-6  
       SOPERT               IPERSO         OFF         [  0]    ***   
       SPHERICAL            IDFGHI         ON          [  1]    ***   
       SPINORBIT            ISOCAL         OFF         [  0]    ***   
       SPINROTATIO          ISRCON         OFF         [  0]    ***   
       SPIN_FLIP            ISPFLP         OFF         [  0]    ***   
       SPIN_ORBIT           ISPORB         OFF         [  0]    ***   
       SPIN_SCAL            ISCSMP         OFF         [  0]    ***   
       STEEPSCALE           ISTPSC              1000          x 10-3  
       SUBGROUP             ISUBGP         DEFAULT     [  0]    ***   
       SUBGRPAXIS           ISBXYZ         X           [  0]    ***   
       SYMMETRY             ISYM           ON          [  0]    ***   
       SYM_CHECK            ISYMCK         OVERRIDE    [  1]    ***   
       T3_EXTRAPOL          IT3EXT         OFF         [  0]    ***   
       T4_EXTRAPOL          IT4EXP         OFF         [  0]    ***   
       TAMP_SUM             IEVERY              5               ***   
       TESTSUITE            ITESTS         OFF         [  0]    ***   
       THERMOCH             ITHERM         OFF         [  0]    ***   
       TOL_CHOLESK          ITOLCH          10D-  4             ***   
       TRANGRAD             IRESRM         OFF         [  0]    ***   
       TRANS_INV            ITRAIN         USE         [  0]    ***   
       TREAT_PERT           ITREAT         SIMULTANEOUS[  0]    ***   
       TRIP_ALGORI          ITRALG         NORMAL      [  0]    ***   
       UIJ_THRESHO          IUIJTH              1               ***   
       UNITS                IUNITS         ANGSTROM    [  0]    ***   
       UNOS                 IUNOS          OFF         [  0]    ***   
       UPDATE_HESS          IHUPDT         ON          [  1]    ***   
       VIBPHASE             ISETPH         STANDARD    [  0]    ***   
       VIBRATION            IVIB           NO          [  0]    ***   
       VIB_ALGORIT          IGEALG         STANDARD    [  0]    ***   
       VNATORB              IVNORB         OFF         [  0]    ***   
       VTRAN                IVTRAN         FULL/PARTIAL[  0]    ***   
       XFIELD               IXEFLD              0             x 10-6  
       XFORM_TOL            IXFTOL          10D- 11             ***   
       YFIELD               IYEFLD              0             x 10-6  
       ZFIELD               IZEFLD              0             x 10-6  
       ZSCALE_EXP           IZEXPS         OFF         [  0]    ***   
    -------------------------------------------------------------------
   2 entries found in Z-matrix 
   Job Title : Carbon Monoxide DBOC calculation                                                
   There are  1 unique internal coordinates.
   Of these,  1 will be optimized.
   User supplied Z-matrix: 
--------------------------------------------------------------------------------
       SYMBOL    BOND      LENGTH    ANGLE     ANGLE     DIHED     ANGLE
                  TO      (ANGST)    WRT      (DEG)      WRT      (DEG)
--------------------------------------------------------------------------------
        C    
        O          1         r    
                  *Initial values for internal coordinates* 
                      Name             Value
                        r               1.1282500000
--------------------------------------------------------------------------------
  read isotopes from ZMAT file 
   Rotational constants (in cm-1): 
          1.9315317250             1.9315317250
   Rotational constants (in MHz): 
      57905.8724666917         57905.8724666917
********************************************************************************
   The full molecular point group is CXv .
   The largest Abelian subgroup of the full molecular point group is C2v .
   The computational point group is C2v .
********************************************************************************
--------------------------------------------------------------------------------
   Analysis of internal coordinates specified by Z-matrix 
--------------------------------------------------------------------------------
   *The nuclear repulsion energy is   22.513184843784618 a.u.
   *There is   1 degree of freedom within the tot. symm. molecular subspace.
   *Z-matrix requests optimization of   1 coordinates.
   *The optimization is unconstrained and your Z-matrix is great.
--------------------------------------------------------------------------------


 ----------------------------------------------------------------
         Coordinates used in calculation (QCOMP) 
 ----------------------------------------------------------------
 Z-matrix   Atomic            Coordinates (in bohr)
  Symbol    Number           X              Y              Z
 ----------------------------------------------------------------
     C         6        -0.00000000     0.00000000     1.21816770
     O         8         0.00000000     0.00000000    -0.91391625
 ----------------------------------------------------------------
 
   Interatomic distance matrix (Angstroms) 
 
                 C             O    
                [ 1]        [ 2]
  C    [ 1]     0.00000
  O    [ 2]     1.12825     0.00000
 rotcon2
   Rotational constants (in cm-1): 
          1.9315317250             0.0000000000
   Rotational constants (in MHz): 
      57905.8724666917             0.0000000000
  ECPDATA file not present.   Using default ECPDATA. 
  @GTFLGS-I, Hessian will be transformed to curvilinear coordinates.
  There are  218 basis functions.
 @CHECKOUT-I, Total execution time (CPU/WALL):        0.13/       0.16 seconds.
--executable xjoda finished with status     0 in        0.19 seconds (walltime).
 --invoking executable--
/nfs/workspaces/public/cfour_mpi/bin/xvmol
 SERIAL VERSION OF MOLECULE STARTED
********************************************************************************
                    INPUT FROM MOL FILE
********************************************************************************
INTGRL        1    0    1    0    0    0    0    0    0                         
         *** CFOUR Program System (Release V0.1) ***                            
Carbon Monoxide DBOC calculation                                                
    2    2 X  Y       0.10E-08              0    0                              
   9999.00      3.00                                                            
          6.00000000    1    5    1    1    1    1    1                         
C #1  -0.000000000000000   0.000000000000000   1.218167698172089                
   16    9                                                                      
   33980.0000000000       9.100000000000000E-005 -1.900000000000000E-005        
  0.000000000000000E+000  0.000000000000000E+000  0.000000000000000E+000        
  0.000000000000000E+000  0.000000000000000E+000  0.000000000000000E+000        
  0.000000000000000E+000                                                        
   5089.00000000000       7.040000000000000E-004 -1.510000000000000E-004        
  0.000000000000000E+000  0.000000000000000E+000  0.000000000000000E+000        
  0.000000000000000E+000  0.000000000000000E+000  0.000000000000000E+000        
  0.000000000000000E+000                                                        
   1157.00000000000       3.693000000000000E-003 -7.850000000000000E-004        
  0.000000000000000E+000  0.000000000000000E+000  0.000000000000000E+000        
  0.000000000000000E+000  0.000000000000000E+000  0.000000000000000E+000        
  0.000000000000000E+000                                                        
   326.600000000000       1.536000000000000E-002 -3.324000000000000E-003        
  0.000000000000000E+000  0.000000000000000E+000  0.000000000000000E+000        
  0.000000000000000E+000  0.000000000000000E+000  0.000000000000000E+000        
  0.000000000000000E+000                                                        
   106.100000000000       5.292900000000000E-002 -1.151200000000000E-002        
  0.000000000000000E+000  0.000000000000000E+000  0.000000000000000E+000        
  0.000000000000000E+000  0.000000000000000E+000  0.000000000000000E+000        
  0.000000000000000E+000                                                        
   38.1100000000000       0.147043000000000      -3.416000000000000E-002        
  0.000000000000000E+000  0.000000000000000E+000  0.000000000000000E+000        
  0.000000000000000E+000  0.000000000000000E+000  0.000000000000000E+000        
  0.000000000000000E+000                                                        
   14.7500000000000       0.305631000000000      -7.717300000000001E-002        
  0.000000000000000E+000  0.000000000000000E+000  0.000000000000000E+000        
  0.000000000000000E+000  0.000000000000000E+000  0.000000000000000E+000        
  0.000000000000000E+000                                                        
   6.03500000000000       0.399345000000000      -0.141493000000000             
  0.000000000000000E+000  0.000000000000000E+000  0.000000000000000E+000        
  0.000000000000000E+000  0.000000000000000E+000  0.000000000000000E+000        
  0.000000000000000E+000                                                        
   2.53000000000000       0.217051000000000      -0.118019000000000             
  0.000000000000000E+000  0.000000000000000E+000  0.000000000000000E+000        
  0.000000000000000E+000  0.000000000000000E+000  0.000000000000000E+000        
  0.000000000000000E+000                                                        
  0.735500000000000       1.589400000000000E-002  0.273806000000000             
   1.00000000000000       0.000000000000000E+000  0.000000000000000E+000        
  0.000000000000000E+000  0.000000000000000E+000  0.000000000000000E+000        
  0.000000000000000E+000                                                        
  0.290500000000000      -3.084000000000000E-003  0.586510000000000             
  0.000000000000000E+000   1.00000000000000       0.000000000000000E+000        
  0.000000000000000E+000  0.000000000000000E+000  0.000000000000000E+000        
  0.000000000000000E+000                                                        
  0.111100000000000       9.779999999999999E-004  0.285430000000000             
  0.000000000000000E+000  0.000000000000000E+000   1.00000000000000             
  0.000000000000000E+000  0.000000000000000E+000  0.000000000000000E+000        
  0.000000000000000E+000                                                        
   7.21600000000000       0.000000000000000E+000  0.000000000000000E+000        
  0.000000000000000E+000  0.000000000000000E+000  0.000000000000000E+000        
   1.00000000000000       0.000000000000000E+000  0.000000000000000E+000        
  0.000000000000000E+000                                                        
   19.5700000000000       0.000000000000000E+000  0.000000000000000E+000        
  0.000000000000000E+000  0.000000000000000E+000  0.000000000000000E+000        
  0.000000000000000E+000   1.00000000000000       0.000000000000000E+000        
  0.000000000000000E+000                                                        
   53.0730000000000       0.000000000000000E+000  0.000000000000000E+000        
  0.000000000000000E+000  0.000000000000000E+000  0.000000000000000E+000        
  0.000000000000000E+000  0.000000000000000E+000   1.00000000000000             
  0.000000000000000E+000                                                        
  4.145000000000000E-002  0.000000000000000E+000  0.000000000000000E+000        
  0.000000000000000E+000  0.000000000000000E+000  0.000000000000000E+000        
  0.000000000000000E+000  0.000000000000000E+000  0.000000000000000E+000        
   1.00000000000000                                                             
   10    8                                                                      
   34.5100000000000       5.378000000000000E-003  0.000000000000000E+000        
  0.000000000000000E+000  0.000000000000000E+000  0.000000000000000E+000        
  0.000000000000000E+000  0.000000000000000E+000  0.000000000000000E+000        
   7.91500000000000       3.613200000000000E-002  0.000000000000000E+000        
  0.000000000000000E+000  0.000000000000000E+000  0.000000000000000E+000        
  0.000000000000000E+000  0.000000000000000E+000  0.000000000000000E+000        
   2.36800000000000       0.142493000000000       0.000000000000000E+000        
  0.000000000000000E+000  0.000000000000000E+000  0.000000000000000E+000        
  0.000000000000000E+000  0.000000000000000E+000  0.000000000000000E+000        
  0.813200000000000       0.342150000000000        1.00000000000000             
  0.000000000000000E+000  0.000000000000000E+000  0.000000000000000E+000        
  0.000000000000000E+000  0.000000000000000E+000  0.000000000000000E+000        
  0.289000000000000       0.463864000000000       0.000000000000000E+000        
   1.00000000000000       0.000000000000000E+000  0.000000000000000E+000        
  0.000000000000000E+000  0.000000000000000E+000  0.000000000000000E+000        
  0.100700000000000       0.250028000000000       0.000000000000000E+000        
  0.000000000000000E+000   1.00000000000000       0.000000000000000E+000        
  0.000000000000000E+000  0.000000000000000E+000  0.000000000000000E+000        
   8.18200000000000       0.000000000000000E+000  0.000000000000000E+000        
  0.000000000000000E+000  0.000000000000000E+000   1.00000000000000             
  0.000000000000000E+000  0.000000000000000E+000  0.000000000000000E+000        
   24.1860000000000       0.000000000000000E+000  0.000000000000000E+000        
  0.000000000000000E+000  0.000000000000000E+000  0.000000000000000E+000        
   1.00000000000000       0.000000000000000E+000  0.000000000000000E+000        
   71.4940000000000       0.000000000000000E+000  0.000000000000000E+000        
  0.000000000000000E+000  0.000000000000000E+000  0.000000000000000E+000        
  0.000000000000000E+000   1.00000000000000       0.000000000000000E+000        
  3.218000000000000E-002  0.000000000000000E+000  0.000000000000000E+000        
  0.000000000000000E+000  0.000000000000000E+000  0.000000000000000E+000        
  0.000000000000000E+000  0.000000000000000E+000   1.00000000000000             
    6    6                                                                      
   1.84800000000000        1.00000000000000       0.000000000000000E+000        
  0.000000000000000E+000  0.000000000000000E+000  0.000000000000000E+000        
  0.000000000000000E+000                                                        
  0.649000000000000       0.000000000000000E+000   1.00000000000000             
  0.000000000000000E+000  0.000000000000000E+000  0.000000000000000E+000        
  0.000000000000000E+000                                                        
  0.228000000000000       0.000000000000000E+000  0.000000000000000E+000        
   1.00000000000000       0.000000000000000E+000  0.000000000000000E+000        
  0.000000000000000E+000                                                        
   8.65600000000000       0.000000000000000E+000  0.000000000000000E+000        
  0.000000000000000E+000   1.00000000000000       0.000000000000000E+000        
  0.000000000000000E+000                                                        
   33.2130000000000       0.000000000000000E+000  0.000000000000000E+000        
  0.000000000000000E+000  0.000000000000000E+000   1.00000000000000             
  0.000000000000000E+000                                                        
  7.660000000000000E-002  0.000000000000000E+000  0.000000000000000E+000        
  0.000000000000000E+000  0.000000000000000E+000  0.000000000000000E+000        
   1.00000000000000                                                             
    4    4                                                                      
   1.41900000000000        1.00000000000000       0.000000000000000E+000        
  0.000000000000000E+000  0.000000000000000E+000                                
  0.485000000000000       0.000000000000000E+000   1.00000000000000             
  0.000000000000000E+000  0.000000000000000E+000                                
   24.6940000000000       0.000000000000000E+000  0.000000000000000E+000        
   1.00000000000000       0.000000000000000E+000                                
  0.187000000000000       0.000000000000000E+000  0.000000000000000E+000        
  0.000000000000000E+000   1.00000000000000                                     
    2    2                                                                      
   1.01100000000000        1.00000000000000       0.000000000000000E+000        
  0.424000000000000       0.000000000000000E+000   1.00000000000000             
          8.00000000    1    5    1    1    1    1    1                         
O #2   0.000000000000000   0.000000000000000  -0.913916248771193                
   16    9                                                                      
   61420.0000000000       9.000000000000001E-005 -2.000000000000000E-005        
  0.000000000000000E+000  0.000000000000000E+000  0.000000000000000E+000        
  0.000000000000000E+000  0.000000000000000E+000  0.000000000000000E+000        
  0.000000000000000E+000                                                        
   9199.00000000000       6.980000000000001E-004 -1.590000000000000E-004        
  0.000000000000000E+000  0.000000000000000E+000  0.000000000000000E+000        
  0.000000000000000E+000  0.000000000000000E+000  0.000000000000000E+000        
  0.000000000000000E+000                                                        
   2091.00000000000       3.664000000000000E-003 -8.290000000000000E-004        
  0.000000000000000E+000  0.000000000000000E+000  0.000000000000000E+000        
  0.000000000000000E+000  0.000000000000000E+000  0.000000000000000E+000        
  0.000000000000000E+000                                                        
   590.900000000000       1.521800000000000E-002 -3.508000000000000E-003        
  0.000000000000000E+000  0.000000000000000E+000  0.000000000000000E+000        
  0.000000000000000E+000  0.000000000000000E+000  0.000000000000000E+000        
  0.000000000000000E+000                                                        
   192.300000000000       5.242300000000000E-002 -1.215600000000000E-002        
  0.000000000000000E+000  0.000000000000000E+000  0.000000000000000E+000        
  0.000000000000000E+000  0.000000000000000E+000  0.000000000000000E+000        
  0.000000000000000E+000                                                        
   69.3200000000000       0.145921000000000      -3.626100000000000E-002        
  0.000000000000000E+000  0.000000000000000E+000  0.000000000000000E+000        
  0.000000000000000E+000  0.000000000000000E+000  0.000000000000000E+000        
  0.000000000000000E+000                                                        
   26.9700000000000       0.305258000000000      -8.299200000000000E-002        
  0.000000000000000E+000  0.000000000000000E+000  0.000000000000000E+000        
  0.000000000000000E+000  0.000000000000000E+000  0.000000000000000E+000        
  0.000000000000000E+000                                                        
   11.1000000000000       0.398508000000000      -0.152090000000000             
  0.000000000000000E+000  0.000000000000000E+000  0.000000000000000E+000        
  0.000000000000000E+000  0.000000000000000E+000  0.000000000000000E+000        
  0.000000000000000E+000                                                        
   4.68200000000000       0.216980000000000      -0.115331000000000             
  0.000000000000000E+000  0.000000000000000E+000  0.000000000000000E+000        
  0.000000000000000E+000  0.000000000000000E+000  0.000000000000000E+000        
  0.000000000000000E+000                                                        
   1.42800000000000       1.759400000000000E-002  0.288979000000000             
   1.00000000000000       0.000000000000000E+000  0.000000000000000E+000        
  0.000000000000000E+000  0.000000000000000E+000  0.000000000000000E+000        
  0.000000000000000E+000                                                        
  0.554700000000000      -2.502000000000000E-003  0.586128000000000             
  0.000000000000000E+000   1.00000000000000       0.000000000000000E+000        
  0.000000000000000E+000  0.000000000000000E+000  0.000000000000000E+000        
  0.000000000000000E+000                                                        
  0.206700000000000       9.540000000000000E-004  0.277624000000000             
  0.000000000000000E+000  0.000000000000000E+000   1.00000000000000             
  0.000000000000000E+000  0.000000000000000E+000  0.000000000000000E+000        
  0.000000000000000E+000                                                        
   12.9740000000000       0.000000000000000E+000  0.000000000000000E+000        
  0.000000000000000E+000  0.000000000000000E+000  0.000000000000000E+000        
   1.00000000000000       0.000000000000000E+000  0.000000000000000E+000        
  0.000000000000000E+000                                                        
   34.9000000000000       0.000000000000000E+000  0.000000000000000E+000        
  0.000000000000000E+000  0.000000000000000E+000  0.000000000000000E+000        
  0.000000000000000E+000   1.00000000000000       0.000000000000000E+000        
  0.000000000000000E+000                                                        
   93.8810000000000       0.000000000000000E+000  0.000000000000000E+000        
  0.000000000000000E+000  0.000000000000000E+000  0.000000000000000E+000        
  0.000000000000000E+000  0.000000000000000E+000   1.00000000000000             
  0.000000000000000E+000                                                        
  6.959000000000000E-002  0.000000000000000E+000  0.000000000000000E+000        
  0.000000000000000E+000  0.000000000000000E+000  0.000000000000000E+000        
  0.000000000000000E+000  0.000000000000000E+000  0.000000000000000E+000        
   1.00000000000000                                                             
   10    8                                                                      
   63.4200000000000       6.044000000000000E-003  0.000000000000000E+000        
  0.000000000000000E+000  0.000000000000000E+000  0.000000000000000E+000        
  0.000000000000000E+000  0.000000000000000E+000  0.000000000000000E+000        
   14.6600000000000       4.179900000000000E-002  0.000000000000000E+000        
  0.000000000000000E+000  0.000000000000000E+000  0.000000000000000E+000        
  0.000000000000000E+000  0.000000000000000E+000  0.000000000000000E+000        
   4.45900000000000       0.161143000000000       0.000000000000000E+000        
  0.000000000000000E+000  0.000000000000000E+000  0.000000000000000E+000        
  0.000000000000000E+000  0.000000000000000E+000  0.000000000000000E+000        
   1.53100000000000       0.356731000000000        1.00000000000000             
  0.000000000000000E+000  0.000000000000000E+000  0.000000000000000E+000        
  0.000000000000000E+000  0.000000000000000E+000  0.000000000000000E+000        
  0.530200000000000       0.448309000000000       0.000000000000000E+000        
   1.00000000000000       0.000000000000000E+000  0.000000000000000E+000        
  0.000000000000000E+000  0.000000000000000E+000  0.000000000000000E+000        
  0.175000000000000       0.244940000000000       0.000000000000000E+000        
  0.000000000000000E+000   1.00000000000000       0.000000000000000E+000        
  0.000000000000000E+000  0.000000000000000E+000  0.000000000000000E+000        
   14.4750000000000       0.000000000000000E+000  0.000000000000000E+000        
  0.000000000000000E+000  0.000000000000000E+000   1.00000000000000             
  0.000000000000000E+000  0.000000000000000E+000  0.000000000000000E+000        
   42.7300000000000       0.000000000000000E+000  0.000000000000000E+000        
  0.000000000000000E+000  0.000000000000000E+000  0.000000000000000E+000        
   1.00000000000000       0.000000000000000E+000  0.000000000000000E+000        
   126.140000000000       0.000000000000000E+000  0.000000000000000E+000        
  0.000000000000000E+000  0.000000000000000E+000  0.000000000000000E+000        
  0.000000000000000E+000   1.00000000000000       0.000000000000000E+000        
  5.348000000000000E-002  0.000000000000000E+000  0.000000000000000E+000        
  0.000000000000000E+000  0.000000000000000E+000  0.000000000000000E+000        
  0.000000000000000E+000  0.000000000000000E+000   1.00000000000000             
    6    6                                                                      
   3.77500000000000        1.00000000000000       0.000000000000000E+000        
  0.000000000000000E+000  0.000000000000000E+000  0.000000000000000E+000        
  0.000000000000000E+000                                                        
   1.30000000000000       0.000000000000000E+000   1.00000000000000             
  0.000000000000000E+000  0.000000000000000E+000  0.000000000000000E+000        
  0.000000000000000E+000                                                        
  0.444000000000000       0.000000000000000E+000  0.000000000000000E+000        
   1.00000000000000       0.000000000000000E+000  0.000000000000000E+000        
  0.000000000000000E+000                                                        
   14.9270000000000       0.000000000000000E+000  0.000000000000000E+000        
  0.000000000000000E+000   1.00000000000000       0.000000000000000E+000        
  0.000000000000000E+000                                                        
   57.5440000000000       0.000000000000000E+000  0.000000000000000E+000        
  0.000000000000000E+000  0.000000000000000E+000   1.00000000000000             
  0.000000000000000E+000                                                        
  0.154000000000000       0.000000000000000E+000  0.000000000000000E+000        
  0.000000000000000E+000  0.000000000000000E+000  0.000000000000000E+000        
   1.00000000000000                                                             
    4    4                                                                      
   2.66600000000000        1.00000000000000       0.000000000000000E+000        
  0.000000000000000E+000  0.000000000000000E+000                                
  0.859000000000000       0.000000000000000E+000   1.00000000000000             
  0.000000000000000E+000  0.000000000000000E+000                                
   26.4830000000000       0.000000000000000E+000  0.000000000000000E+000        
   1.00000000000000       0.000000000000000E+000                                
  0.324000000000000       0.000000000000000E+000  0.000000000000000E+000        
  0.000000000000000E+000   1.00000000000000                                     
    2    2                                                                      
   1.84600000000000        1.00000000000000       0.000000000000000E+000        
  0.714000000000000       0.000000000000000E+000   1.00000000000000             
FINISH                                                                          
 
********************************************************************************
 ONE- AND TWO-ELECTRON INTEGRALS OVER SYMMETRY-ADAPTED AOS ARE CALCULATED.

  SPHERICAL HARMONICS ARE USED.
  
  INTEGRALS LESS THAN  0.10E-13 ARE NEGLECTED.

  NUCLEAR REPULSION ENERGY :   22.5131848438 A.U.
  @MOLECU-I, ONE ELECTRON INTEGRALS (CPU/WALL):        0.06/       0.06 SECONDS.
  @TWOEL-I,    4595968 INTEGRALS OF SYMMETRY TYPE  I I I I
  @TWOEL-I,   19727067 INTEGRALS OF SYMMETRY TYPE  I J I J
  @TWOEL-I,   10395446 INTEGRALS OF SYMMETRY TYPE  I I J J
  @TWOEL-I,   14595839 INTEGRALS OF SYMMETRY TYPE  I J K L
  @TWOEL-I, TOTAL NUMBER OF 2-E INTEGRALS   49314320.
  @MOLECU-I, TWO ELECTRON INTEGRALS (CPU/WALL):      150.41/      21.83 SECONDS.
 @CHECKOUT-I, Total execution time (CPU/WALL):      150.49/      21.91 seconds.

Running with 14 threads/proc

--executable xvmol finished with status     0 in       21.94 seconds (walltime).
 --invoking executable--
/nfs/workspaces/public/cfour_mpi/bin/xvmol2ja
 @GETMEM-I,  Allocated    3814 MB of main memory.
 @CHECKOUT-I, Total execution time (CPU/WALL):        0.12/       0.03 seconds.
--executable xvmol2ja finished with status     0 in        0.06 seconds (walltime).
 --invoking executable--
/nfs/workspaces/public/cfour_mpi/bin/xvscf
  There are  218 functions in the AO basis.

  There are 4 irreducible representations.

       Irrep        # of functions
         1                 86
         2                 52
         3                 52
         4                 28


  Parameters for SCF calculation: 
        SCF reference function:  RHF  
  Maximum number of iterations:  150
     Full symmetry point group: CXv 
     Computational point group: C2v 
        Initial density matrix: MOREAD                 
     SCF convergence tolerance: 10**(-10)
  DIIS convergence acceleration:  ON
          Latest start for DIIS:   8
                     DIIS order:   6

  Memory information:    2523578 words required.
  Fock matrices are constructed from AO integral file.
 @GETMEM-I,  Allocated      19 MB of main memory.
  Initialization and symmetry analysis required      0.001 seconds.

  @INITGES-I, Occupancies from core Hamiltonian:

          Alpha population by irrep:   5    1    1    0
           Beta population by irrep:   5    1    1    0


 total no. of electrons in initial guess :  0.000000000000000E+000
  --------------------------------------------------------------------
  Iteration         Total Energy            Largest Density Difference
  --------------------------------------------------------------------
       0            22.513184843784625              0.0000000000D+00
   current occupation vector 
     5  1  1  0
     5  1  1  0
       1           -91.791881649369884              0.1871593591D+02
   current occupation vector 
     5  1  1  0
     5  1  1  0
       2           -96.468993014760628              0.2293497677D+02
   current occupation vector 
     5  1  1  0
     5  1  1  0
       3          -103.358127232348266              0.2292417237D+02
   current occupation vector 
     5  1  1  0
     5  1  1  0
       4          -100.409158563721377              0.7592240705D+01
   current occupation vector 
     5  1  1  0
     5  1  1  0
       5          -103.462944274789692              0.7398222265D+01
   current occupation vector 
     5  1  1  0
     5  1  1  0
       6          -100.516441959214177              0.5809798262D+01
   current occupation vector 
     5  1  1  0
     5  1  1  0
       7          -103.254577440395437              0.5595457798D+01
   current occupation vector 
     5  1  1  0
     5  1  1  0
       8          -100.265582410084335              0.5580351089D+01
   current occupation vector 
     5  1  1  0
     5  1  1  0
       9          -110.829571071486058              0.4184381035D+01
   current occupation vector 
     5  1  1  0
     5  1  1  0
      10          -112.305301995655768              0.9126534976D+00
   current occupation vector 
     5  1  1  0
     5  1  1  0
      11          -112.774880786814734              0.4956256556D+00
   current occupation vector 
     5  1  1  0
     5  1  1  0
      12          -112.788780600548549              0.1043264431D+00
   current occupation vector 
     5  1  1  0
     5  1  1  0
      13          -112.789197502911506              0.2304953364D-01
   current occupation vector 
     5  1  1  0
     5  1  1  0
      14          -112.789277880574431              0.1360876787D-01
   current occupation vector 
     5  1  1  0
     5  1  1  0
      15          -112.789281294777979              0.3687057309D-02
   current occupation vector 
     5  1  1  0
     5  1  1  0
      16          -112.789281332748359              0.3280663606D-03
   current occupation vector 
     5  1  1  0
     5  1  1  0
      17          -112.789281333693978              0.3630548813D-04
   current occupation vector 
     5  1  1  0
     5  1  1  0
      18          -112.789281333721149              0.6213564757D-05
   current occupation vector 
     5  1  1  0
     5  1  1  0
      19          -112.789281333723082              0.1184995370D-05
   current occupation vector 
     5  1  1  0
     5  1  1  0
      20          -112.789281333721206              0.2063582785D-06
   current occupation vector 
     5  1  1  0
     5  1  1  0
      21          -112.789281333721291              0.3350355815D-07
   current occupation vector 
     5  1  1  0
     5  1  1  0
      22          -112.789281333722201              0.8376669136D-08
   current occupation vector 
     5  1  1  0
     5  1  1  0
      23          -112.789281333722343              0.4722392477D-08
   current occupation vector 
     5  1  1  0
     5  1  1  0
      24          -112.789281333722144              0.1252915549D-09
   current occupation vector 
     5  1  1  0
     5  1  1  0

  SCF has converged.

 Density matrix saved to file den.dat
 total electron number:   14.0000000000000     
     E(SCF)=      -112.789281333721064              0.8630168802D-10

  Eigenvector printing suppressed.

 @PUTMOS-I, Writing converged MOs to NEWMOS. 
 @PUTMOS-I, Symmetry   1 Full Blocks 21 Partial Blocksize   2
 @PUTMOS-I, Symmetry   2 Full Blocks 13 Partial Blocksize   0
 @PUTMOS-I, Symmetry   3 Full Blocks 13 Partial Blocksize   0
 @PUTMOS-I, Symmetry   4 Full Blocks  7 Partial Blocksize   0
 @PUTFOCK-I, Writing converged Fock matrix to NEWFOCK. 
 @PUTFOCK-I, Symmetry   1 Full Blocks 21 Partial Blocksize   2
 @PUTFOCK-I, Symmetry   2 Full Blocks 13 Partial Blocksize   0
 @PUTFOCK-I, Symmetry   3 Full Blocks 13 Partial Blocksize   0
 @PUTFOCK-I, Symmetry   4 Full Blocks  7 Partial Blocksize   0


 
  ORBITAL EIGENVALUES (ALPHA)  (1H = 27.2113834 eV)

       MO #        E(hartree)               E(eV)           FULLSYM    COMPSYM
       ----   --------------------   --------------------   -------   ---------
    1     1         -20.6652459551        -562.3299307384     SG+        A1 (1)
    2     2         -11.3603695875        -309.1313724118     SG+        A1 (1)
    3     3          -1.5217416150         -41.4086945220     SG+        A1 (1)
    4     4          -0.8046428223         -21.8954443388     SG+        A1 (1)
    5    87          -0.6403540778         -17.4249203234      PI        B1 (2)
    6   139          -0.6403540778         -17.4249203234      PI        B2 (3)
    7     5          -0.5549551699         -15.1010978993     SG+        A1 (1)
  +++++++++++++++++++++++++++++++++++++++++++++++++++++++++++++++++++++++++++++
    8     6           0.0600931577           1.6352179548     SG+        A1 (1)
    9   140           0.0627927496           1.7086775830      PI        B2 (3)
   10    88           0.0627927496           1.7086775830      PI        B1 (2)
   11     7           0.0746838959           2.0322521243     SG+        A1 (1)
   12   141           0.1411523428           3.8409505180      PI        B2 (3)
   13    89           0.1411523428           3.8409505180      PI        B1 (2)
   14     8           0.1563176068           4.2536183317     SG+        A1 (1)
   15   142           0.1668121459           4.5391892566      PI        B2 (3)
   16    90           0.1668121459           4.5391892566      PI        B1 (2)
   17     9           0.2278948688           6.2013346504      DE        A1 (1)
   18   191           0.2278948688           6.2013346504      DE        A2 (4)
   19    10           0.2280255450           6.2048905306     SG+        A1 (1)
   20    11           0.3012594845           8.1976873352     SG+        A1 (1)
   21   143           0.3207429036           8.7278581235      PI        B2 (3)
   22    91           0.3207429036           8.7278581235      PI        B1 (2)
   23    12           0.3917567814          10.6602439789     SG+        A1 (1)
   24   144           0.3958132841          10.7706270282      PI        B2 (3)
   25    92           0.3958132841          10.7706270282      PI        B1 (2)
   26    13           0.5083729311          13.8335307381     SG+        A1 (1)
   27   192           0.5345932848          14.5470228348      DE        A2 (4)
   28    14           0.5345932848          14.5470228348      DE        A1 (1)
   29   145           0.6231224844          16.9560248291      PI        B2 (3)
   30    93           0.6231224844          16.9560248291      PI        B1 (2)
   31    15           0.6451411714          17.5551837612     SG+        A1 (1)
   32   146           0.7487797905          20.3753339616      PH        B2 (3)
   33    94           0.7487797905          20.3753339616      PH        B1 (2)
   34    16           0.7686021243          20.9147270870      DE        A1 (1)
   35   193           0.7686021243          20.9147270870      DE        A2 (4)
   36    17           0.7799377232          21.2231844141     SG+        A1 (1)
   37   147           0.8234492463          22.4071931516      PI        B2 (3)
   38    95           0.8234492463          22.4071931516      PI        B1 (2)
   39    18           0.8723584052          23.7380790254     SG+        A1 (1)
   40   148           0.8810564188          23.9747640097      PI        B2 (3)
   41    96           0.8810564188          23.9747640097      PI        B1 (2)
   42    19           0.8911365428          24.2490581286      DE        A1 (1)
   43   194           0.8911365428          24.2490581286      DE        A2 (4)
   44    20           0.9105566827          24.7775070002     SG+        A1 (1)
   45   149           1.0769071845          29.3041342823      PI        B2 (3)
   46    97           1.0769071845          29.3041342823      PI        B1 (2)
   47    21           1.1958322647          32.5402502379     SG+        A1 (1)
   48   150           1.4475533376          39.3899288615      PH        B2 (3)
   49    98           1.4475533376          39.3899288615      PH        B1 (2)
   50    22           1.4742919738          40.1175241417     SG+        A1 (1)
   51    23           1.5176128211          41.2963443273      DE        A1 (1)
   52   195           1.5176128211          41.2963443273      DE        A2 (4)
   53   151           1.5537240363          42.2789804502      PI        B2 (3)
   54    99           1.5537240363          42.2789804502      PI        B1 (2)
   55    24           1.6672797508          45.3689885341     SG+        A1 (1)
   56    25           1.7690345498          48.1378773828      DE        A1 (1)
   57   196           1.7690345498          48.1378773829      DE        A2 (4)
   58    26           1.7707273571          48.1839410103     SG+        A1 (1)
   59   152           1.8056618536          49.1345569888      PI        B2 (3)
   60   100           1.8056618536          49.1345569888      PI        B1 (2)
   61   153           1.9685926277          53.5681287513      PI        B2 (3)
   62   101           1.9685926277          53.5681287514      PI        B1 (2)
   63   197           2.1056530527          57.2977325246      PI        A2 (4)
   64    27           2.1056530527          57.2977325246      PI        A1 (1)
   65    28           2.1354189692          58.1077042895     SG+        A1 (1)
   66    29           2.1960118624          59.7565207386      DE        A1 (1)
   67   198           2.1960118624          59.7565207387      DE        A2 (4)
   68   154           2.2519113928          61.2776242913      PH        B2 (3)
   69   102           2.2519113928          61.2776242913      PH        B1 (2)
   70    30           2.3157689186          63.0152759111     SG+        A1 (1)
   71   155           2.3250419199          63.2676071033      PI        B2 (3)
   72   103           2.3250419199          63.2676071033      PI        B1 (2)
   73   156           2.3632298265          64.3067528700      PH        B2 (3)
   74   104           2.3632298265          64.3067528700      PH        B1 (2)
   75    31           2.3644806998          64.3407908653      DE        A1 (1)
   76   199           2.3644806998          64.3407908653      DE        A2 (4)
   77    32           2.4867444551          67.6677567865     SG+        A1 (1)
   78   157           2.5980003208          70.6951828028      PI        B2 (3)
   79   105           2.5980003208          70.6951828028      PI        B1 (2)
   80   158           2.8323483199          77.0721160543      PI        B2 (3)
   81   106           2.8323483199          77.0721160543      PI        B1 (2)
   82    33           2.9426200400          80.0727621085     SG+        A1 (1)
   83    34           3.0094085421          81.8901696475      DE        A1 (1)
   84   200           3.0094085421          81.8901696477      DE        A2 (4)
   85    35           3.4750879306          94.5619500295     SG+        A1 (1)
   86    36           3.7237151576         101.3274408255      PI        A1 (1)
   87   201           3.7237151576         101.3274408255      PI        A2 (4)
   88   159           3.7508826792         102.0667066719      PI        B2 (3)
   89   107           3.7508826792         102.0667066720      PI        B1 (2)
   90    37           3.9472790040         107.4109223637     SG+        A1 (1)
   91   160           4.0827080595         111.0961343172      PH        B2 (3)
   92   108           4.0827080595         111.0961343172      PH        B1 (2)
   93    38           4.1765203319         113.6488960279      DE        A1 (1)
   94   202           4.1765203319         113.6488960279      DE        A2 (4)
   95   161           4.2105677693         114.5753739028      PI        B2 (3)
   96   109           4.2105677693         114.5753739028      PI        B1 (2)
   97    39           4.2723139563         116.2555730712     SG+        A1 (1)
   98   162           4.2841528891         116.5777268090      PH        B2 (3)
   99   110           4.2841528891         116.5777268090      PH        B1 (2)
  100    40           4.3818852948         119.2371607723      DE        A1 (1)
  101   203           4.3818852948         119.2371607724      DE        A2 (4)
  102    41           4.5353978590         123.4144500136     SG+        A1 (1)
  103   163           4.7638251772         129.6302733464      PI        B2 (3)
  104   111           4.7638251772         129.6302733465      PI        B1 (2)
  105    42           5.0138249176         136.4331121328     SG+        A1 (1)
  106   112           5.1306228187         139.6113446002      PI        B1 (2)
  107   164           5.1306228187         139.6113446002      PI        B2 (3)
  108    43           5.1524140977         140.2043154470      DE        A1 (1)
  109   204           5.1524140977         140.2043154470      DE        A2 (4)
  110   165           5.8165339539         158.2759354782      PI        B2 (3)
  111   113           5.8165339539         158.2759354782      PI        B1 (2)
  112    44           5.8538601801         159.2916337310     SG+        A1 (1)
  113   205           5.9010627764         160.5760816765      PI        A2 (4)
  114    45           5.9010627764         160.5760816765      PI        A1 (1)
  115   114           6.1365249427         166.9833329594      PH        B1 (2)
  116   166           6.1365249427         166.9833329594      PH        B2 (3)
  117    46           6.2326323228         169.5985477258     SG+        A1 (1)
  118    47           6.3058479550         171.5908463646      DE        A1 (1)
  119   206           6.3058479550         171.5908463646      DE        A2 (4)
  120   167           6.3285337662         172.2081586719      PI        B2 (3)
  121   115           6.3285337662         172.2081586719      PI        B1 (2)
  122   168           6.4435781461         175.3386754014      PH        B2 (3)
  123   116           6.4435781461         175.3386754014      PH        B1 (2)
  124   207           6.5907477216         179.3433631449      DE        A2 (4)
  125    48           6.5907477216         179.3433631449      DE        A1 (1)
  126    49           7.0560569448         192.0050708170     SG+        A1 (1)
  127   208           7.3513529907         200.0404847381      DE        A2 (4)
  128    50           7.3513529907         200.0404847381      DE        A1 (1)
  129   169           7.4941436508         203.9260161362      PI        B2 (3)
  130   117           7.4941436508         203.9260161362      PI        B1 (2)
  131    51           7.7957714273         212.1337252082     SG+        A1 (1)
  132    52           8.2568982988         224.6816253045     SG+        A1 (1)
  133   170           8.4904974011         231.0381800389      PI        B2 (3)
  134   118           8.4904974011         231.0381800390      PI        B1 (2)
  135   119          10.1227094111         275.4529268328      PI        B1 (2)
  136   171          10.1227094111         275.4529268330      PI        B2 (3)
  137    53          10.5212262156         286.2971203916     SG+        A1 (1)
  138    54          10.6018701008         288.4915520705      PI        A1 (1)
  139   209          10.6018701008         288.4915520705      PI        A2 (4)
  140   120          10.8826099063         296.1308705541      PH        B1 (2)
  141   172          10.8826099063         296.1308705541      PH        B2 (3)
  142    55          11.1356271341         303.0158193443      DE        A1 (1)
  143   210          11.1356271341         303.0158193444      DE        A2 (4)
  144    56          11.1576857946         303.6160660145     SG+        A1 (1)
  145   173          11.3739341170         309.5004820233      PI        B2 (3)
  146   121          11.3739341170         309.5004820233      PI        B1 (2)
  147    57          11.6241347070         316.3087862046     SG+        A1 (1)
  148   174          11.8549528683         322.5896676877      PH        B2 (3)
  149   122          11.8549528683         322.5896676877      PH        B1 (2)
  150   211          12.2931595953         334.5138789463      DE        A2 (4)
  151    58          12.2931595953         334.5138789464      DE        A1 (1)
  152   123          12.6475807578         344.1581690829      PI        B1 (2)
  153   175          12.6475807578         344.1581690829      PI        B2 (3)
  154    59          12.8787613762         350.4489135246      DE        A1 (1)
  155   212          12.8787613762         350.4489135246      DE        A2 (4)
  156    60          13.3187360908         362.4212341711     SG+        A1 (1)
  157   124          14.1879210855         386.0729603071      PI        B1 (2)
  158   176          14.1879210855         386.0729603071      PI        B2 (3)
  159    61          15.6009289950         424.5228602781     SG+        A1 (1)
  160    62          18.0448253690         491.0246615016     SG+        A1 (1)
  161   125          19.4160453536         528.3374542295      PI        B1 (2)
  162   177          19.4160453536         528.3374542296      PI        B2 (3)
  163    63          20.6807692435         562.7523408907     SG+        A1 (1)
  164   213          26.5391999775         722.1683457169      DE        A2 (4)
  165    64          26.5391999775         722.1683457170      DE        A1 (1)
  166   178          27.0291796018         735.5013691329      PI        B2 (3)
  167   126          27.0291796018         735.5013691329      PI        B1 (2)
  168    65          28.2467882093         768.6341837813     SG+        A1 (1)
  169   127          33.7976506855         919.6808308213      PI        B1 (2)
  170   179          33.7976506855         919.6808308225      PI        B2 (3)
  171    66          35.0154201918         952.8180237508     SG+        A1 (1)
  172    67          36.8474128914        1002.6690794850     SG+        A1 (1)
  173    68          47.1236018220        1282.2983963667      DE        A1 (1)
  174   214          47.1236018220        1282.2983963668      DE        A2 (4)
  175   128          47.7278534669        1298.7409195465      PI        B1 (2)
  176   180          47.7278534669        1298.7409195465      PI        B2 (3)
  177    69          48.5922247078        1322.2616567836     SG+        A1 (1)
  178    70          64.2381064416        1748.0077432736     SG+        A1 (1)
  179   129          66.8592496282        1819.3326754692      PI        B1 (2)
  180   181          66.8592496282        1819.3326754694      PI        B2 (3)
  181    71          67.8349868460        1845.8838350011     SG+        A1 (1)
  182   130          98.6770221240        2685.1382817857      PH        B1 (2)
  183   182          98.6770221240        2685.1382817857      PH        B2 (3)
  184    72          98.6999523176        2685.7622440772      DE        A1 (1)
  185   215          98.6999523176        2685.7622440772      DE        A2 (4)
  186   131          98.7691850399        2687.6461622260      PI        B1 (2)
  187   183          98.7691850399        2687.6461622261      PI        B2 (3)
  188    73          98.7804757115        2687.9533970199     SG+        A1 (1)
  189   132         103.2842917735        2810.5084626469      PH        B1 (2)
  190   184         103.2842917735        2810.5084626470      PH        B2 (3)
  191    74         103.3352945220        2811.8963179910      DE        A1 (1)
  192   216         103.3352945221        2811.8963179915      DE        A2 (4)
  193   133         103.3629583359        2812.6490886359      PI        B1 (2)
  194   185         103.3629583359        2812.6490886360      PI        B2 (3)
  195    75         103.4260969394        2814.3671773840     SG+        A1 (1)
  196    76         115.1913646977        3134.5163891585      DE        A1 (1)
  197   217         115.1913646977        3134.5163891585      DE        A2 (4)
  198   186         115.4304806440        3141.0230648506      PI        B2 (3)
  199   134         115.4304806440        3141.0230648506      PI        B1 (2)
  200    77         116.0483726626        3157.8367614689     SG+        A1 (1)
  201   135         117.0461031726        3184.9863889050      PI        B1 (2)
  202   187         117.0461031726        3184.9863889059      PI        B2 (3)
  203    78         118.0848925588        3213.2532851642     SG+        A1 (1)
  204    79         122.9347951044        3345.2258427866     SG+        A1 (1)
  205    80         198.5801810017        5403.6414408785      DE        A1 (1)
  206   218         198.5801810017        5403.6414408786      DE        A2 (4)
  207   188         198.9077018667        5412.5537367066      PI        B2 (3)
  208   136         198.9077018667        5412.5537367066      PI        B1 (2)
  209    81         199.3409480496        5424.3429646959     SG+        A1 (1)
  210    82         216.7155425366        5897.1297167031     SG+        A1 (1)
  211   137         225.2709252263        6129.9335152064      PI        B1 (2)
  212   189         225.2709252263        6129.9335152066      PI        B2 (3)
  213    83         226.0695994522        6151.6665457788     SG+        A1 (1)
  214   138         395.5041241633       10762.2143588891      PI        B1 (2)
  215   190         395.5041241633       10762.2143588896      PI        B2 (3)
  216    84         396.3604089266       10785.5150518816     SG+        A1 (1)
  217    85         509.4652053174       13863.2530308511     SG+        A1 (1)
  218    86         895.5470047014       24369.0728976517     SG+        A1 (1)


  VSCF finished.

 @CHECKOUT-I, Total execution time (CPU/WALL):       42.45/       7.08 seconds.
--executable xvscf finished with status     0 in        7.10 seconds (walltime).
 --invoking executable--
/nfs/workspaces/public/cfour_mpi/bin/xvtran
 @GETMEM-I,  Allocated    3814 MB of main memory.
  Full RHF integral transformation
  Transformation of IIII integrals :
  1 pass through the AO integral file was required.
     4595968 AO integrals were read.
     8827050 MO integrals were written to HF2.
  Transformation of IIJJ integrals :
  1 pass through the AO integral file was required.
    10395446 AO integrals were read.
    14632989 MO integrals were written to HF2.
  Transformation of IJIJ integrals :
  1 pass through the AO integral file was required.
    19727067 AO integrals were read.
    27485224 MO integrals were written to HF2.
  Transformation of IJKL integrals :
  1 pass through the AO integral file was required.
    14595839 AO integrals were read.
    18543692 MO integrals were written to HF2.
  Summary of active molecular orbitals: 
------------------------------------------------------------------------
 
  Index      Eigenvalue    Symmetry    Index      Eigenvalue    Symmetry
------------------------------------------------------------------------
     1       -20.6652460        1       110         4.2105678        2
     2       -11.3603696        1       111         4.2841529        2
     3        -1.5217416        1       112         4.7638252        2
     4        -0.8046428        1       113         5.1306228        2
     5        -0.5549552        1       114         5.8165340        2
     6        -0.6403541        2       115         6.1365249        2
     7        -0.6403541        3       116         6.3285338        2
     8         0.0600932        1       117         6.4435781        2
     9         0.0746839        1       118         7.4941437        2
    10         0.1563176        1       119         8.4904974        2
    11         0.2278949        1       120        10.1227094        2
    12         0.2280255        1       121        10.8826099        2
    13         0.3012595        1       122        11.3739341        2
    14         0.3917568        1       123        11.8549529        2
    15         0.5083729        1       124        12.6475808        2
    16         0.5345933        1       125        14.1879211        2
    17         0.6451412        1       126        19.4160454        2
    18         0.7686021        1       127        27.0291796        2
    19         0.7799377        1       128        33.7976507        2
    20         0.8723584        1       129        47.7278535        2
    21         0.8911365        1       130        66.8592496        2
    22         0.9105567        1       131        98.6770221        2
    23         1.1958323        1       132        98.7691850        2
    24         1.4742920        1       133       103.2842918        2
    25         1.5176128        1       134       103.3629583        2
    26         1.6672798        1       135       115.4304806        2
    27         1.7690345        1       136       117.0461032        2
    28         1.7707274        1       137       198.9077019        2
    29         2.1056531        1       138       225.2709252        2
    30         2.1354190        1       139       395.5041242        2
    31         2.1960119        1       140         0.0627927        3
    32         2.3157689        1       141         0.1411523        3
    33         2.3644807        1       142         0.1668121        3
    34         2.4867445        1       143         0.3207429        3
    35         2.9426200        1       144         0.3958133        3
    36         3.0094085        1       145         0.6231225        3
    37         3.4750879        1       146         0.7487798        3
    38         3.7237152        1       147         0.8234492        3
    39         3.9472790        1       148         0.8810564        3
    40         4.1765203        1       149         1.0769072        3
    41         4.2723140        1       150         1.4475533        3
    42         4.3818853        1       151         1.5537240        3
    43         4.5353979        1       152         1.8056619        3
    44         5.0138249        1       153         1.9685926        3
    45         5.1524141        1       154         2.2519114        3
    46         5.8538602        1       155         2.3250419        3
    47         5.9010628        1       156         2.3632298        3
    48         6.2326323        1       157         2.5980003        3
    49         6.3058480        1       158         2.8323483        3
    50         6.5907477        1       159         3.7508827        3
    51         7.0560569        1       160         4.0827081        3
    52         7.3513530        1       161         4.2105678        3
    53         7.7957714        1       162         4.2841529        3
    54         8.2568983        1       163         4.7638252        3
    55        10.5212262        1       164         5.1306228        3
    56        10.6018701        1       165         5.8165340        3
    57        11.1356271        1       166         6.1365249        3
    58        11.1576858        1       167         6.3285338        3
    59        11.6241347        1       168         6.4435781        3
    60        12.2931596        1       169         7.4941437        3
    61        12.8787614        1       170         8.4904974        3
    62        13.3187361        1       171        10.1227094        3
    63        15.6009290        1       172        10.8826099        3
    64        18.0448254        1       173        11.3739341        3
    65        20.6807692        1       174        11.8549529        3
    66        26.5392000        1       175        12.6475808        3
    67        28.2467882        1       176        14.1879211        3
    68        35.0154202        1       177        19.4160454        3
    69        36.8474129        1       178        27.0291796        3
    70        47.1236018        1       179        33.7976507        3
    71        48.5922247        1       180        47.7278535        3
    72        64.2381064        1       181        66.8592496        3
    73        67.8349868        1       182        98.6770221        3
    74        98.6999523        1       183        98.7691850        3
    75        98.7804757        1       184       103.2842918        3
    76       103.3352945        1       185       103.3629583        3
    77       103.4260969        1       186       115.4304806        3
    78       115.1913647        1       187       117.0461032        3
    79       116.0483727        1       188       198.9077019        3
    80       118.0848926        1       189       225.2709252        3
    81       122.9347951        1       190       395.5041242        3
    82       198.5801810        1       191         0.2278949        4
    83       199.3409480        1       192         0.5345933        4
    84       216.7155425        1       193         0.7686021        4
    85       226.0695995        1       194         0.8911365        4
    86       396.3604089        1       195         1.5176128        4
    87       509.4652053        1       196         1.7690345        4
    88       895.5470047        1       197         2.1056531        4
    89         0.0627927        2       198         2.1960119        4
    90         0.1411523        2       199         2.3644807        4
    91         0.1668121        2       200         3.0094085        4
    92         0.3207429        2       201         3.7237152        4
    93         0.3958133        2       202         4.1765203        4
    94         0.6231225        2       203         4.3818853        4
    95         0.7487798        2       204         5.1524141        4
    96         0.8234492        2       205         5.9010628        4
    97         0.8810564        2       206         6.3058480        4
    98         1.0769072        2       207         6.5907477        4
    99         1.4475533        2       208         7.3513530        4
   100         1.5537240        2       209        10.6018701        4
   101         1.8056619        2       210        11.1356271        4
   102         1.9685926        2       211        12.2931596        4
   103         2.2519114        2       212        12.8787614        4
   104         2.3250419        2       213        26.5392000        4
   105         2.3632298        2       214        47.1236018        4
   106         2.5980003        2       215        98.6999523        4
   107         2.8323483        2       216       103.3352945        4
   108         3.7508827        2       217       115.1913647        4
   109         4.0827081        2       218       198.5801810        4
------------------------------------------------------------------------
  -20.6652459550579       -11.3603695875252       -1.52174161501700     
 -0.804642822341046      -0.554955169949837      -0.640354077821852     
 -0.640354077821843       6.009315773481919E-002  7.468389586775648E-002
  0.156317606833086       0.227894868822841       0.228025545023105     
  0.301259484485021       0.391756781423011       0.508372931092820     
  0.534593284763545       0.645141171367672       0.768602124324330     
  0.779937723198893       0.872358405174766       0.891136542827189     
  0.910556682693161        1.19583226473895        1.47429197376637     
   1.51761282108612        1.66727975080094        1.76903454981283     
   1.77072735707837        2.10565305270708        2.13541896916247     
   2.19601186239744        2.31576891864702        2.36448069984300     
   2.48674445513420        2.94262003998317        3.00940854214182     
   3.47508793064404        3.72371515758569        3.94727900396811     
   4.17652033185030        4.27231395634300        4.38188529482573     
   4.53539785902986        5.01382491758144        5.15241409766096     
   5.85386018011146        5.90106277641472        6.23263232275823     
   6.30584795496403        6.59074772159308        7.05605694479277     
   7.35135299067874        7.79577142734402        8.25689829883821     
   10.5212262156281        10.6018701008229        11.1356271340585     
   11.1576857946341        11.6241347069695        12.2931595953461     
   12.8787613761875        13.3187360908333        15.6009289949622     
   18.0448253689897        20.6807692434605        26.5391999774997     
   28.2467882092805        35.0154201917850        36.8474128913650     
   47.1236018219733        48.5922247078267        64.2381064416442     
   67.8349868460239        98.6999523176480        98.7804757114964     
   103.335294522034        103.426096939415        115.191364697705     
   116.048372662629        118.084892558760        122.934795104412     
   198.580181001694        199.340948049553        216.715542536625     
   226.069599452219        396.360408926566        509.465205317386     
   895.547004701410       6.279274955807847E-002  0.141152342810452     
  0.166812145853655       0.320742903631448       0.395813284091569     
  0.623122484434223       0.748779790505506       0.823449246304811     
  0.881056418827268        1.07690718445166        1.44755333760459     
   1.55372403632365        1.80566185359067        1.96859262772311     
   2.25191139276398        2.32504191989549        2.36322982645556     
   2.59800032080580        2.83234831987023        3.75088267919551     
   4.08270805949523        4.21056776932560        4.28415288908135     
   4.76382517716894        5.13062281869015        5.81653395388095     
   6.13652494269703        6.32853376620052        6.44357814609900     
   7.49414365078480        8.49049740113573        10.1227094111194     
   10.8826099063431        11.3739341169746        11.8549528682791     
   12.6475807577963        14.1879210855225        19.4160453536342     
   27.0291796018317        33.7976506854607        47.7278534668882     
   66.8592496281970        98.6770221239738        98.7691850398916     
   103.284291773528        103.362958335883        115.430480644018     
   117.046103172578        198.907701866662        225.270925226330     
   395.504124163312       6.279274955807068E-002  0.141152342810421     
  0.166812145853538       0.320742903631278       0.395813284090946     
[...]
         2                D              0.00434960
         2                D              0.00038360
         2                D              0.00404547
         2                D              0.00378920
         2                D              0.00000520
         2                D              0.00000004
         2                D              0.00168097
         2                F              0.00001350
         2                F              0.00020863
         2                F              0.00000000
         2                F              0.00019233
         2                F              0.00000450
         2                F              0.00006954
         2                F              0.00000000
         2                F              0.00006411
         2                F              0.00005184
         2                F              0.00025122
         2                F              0.00000000
         2                F             -0.00016792
         2                F              0.00000450
         2                F              0.00006954
         2                F              0.00000000
         2                F              0.00006411
         2                F              0.00000000
         2                F              0.00000000
         2                F              0.00000000
         2                F              0.00000000
         2                F              0.00007202
         2                F              0.00111269
         2                F              0.00000000
         2                F              0.00102575
         2                F              0.00001350
         2                F              0.00020863
         2                F              0.00000000
         2                F              0.00019233
         2                F              0.00005184
         2                F              0.00025122
         2                F              0.00000000
         2                F             -0.00016792
         2                F              0.00007202
         2                F              0.00111269
         2                F              0.00000000
         2                F              0.00102575
         2                F              0.00006912
         2                F              0.00033496
         2                F              0.00000000
         2                F             -0.00022389
         2                G              0.00000435
         2                G             -0.00000122
         2                G              0.00000000
         2                G              0.00000000
         2                G              0.00002481
         2                G              0.00007892
         2                G              0.00000290
         2                G             -0.00000082
         2                G              0.00000827
         2                G              0.00002631
         2                G              0.00004636
         2                G             -0.00001305
         2                G              0.00000000
         2                G              0.00000000
         2                G              0.00000827
         2                G              0.00002631
         2                G              0.00000000
         2                G              0.00000000
         2                G              0.00004411
         2                G              0.00014030
         2                G              0.00000435
         2                G             -0.00000122
         2                G              0.00002481
         2                G              0.00007892
         2                G              0.00004636
         2                G             -0.00001305
         2                G              0.00004411
         2                G              0.00014030
         2                G              0.00003090
         2                G             -0.00000870
 -------------------------------------------------------
  Population analysis by atoms (atomic charges).
 -------------------------------------------------------
     Z-matrix
      Center          Function          Population
 -------------------------------------------------------
         1                               5.73122769
         2                               8.26877231
 -------------------------------------------------------
 
  Mulliken population analysis of CCSD density.
   Total density is analyzed.
 
  Population analysis by orbitals.
 -------------------------------------------------------
     Z-matrix
      Center          Function          Population
 -------------------------------------------------------
         1                S              1.99488799
         1                S              1.77992021
         1                S              0.00028453
         1                S             -0.10912863
         1                S              0.04188437
         1                S             -0.00184742
         1                S             -0.00010484
         1                S              0.00012560
         1                S              0.02260736
         1                P              0.63472427
         1                P              0.00371303
         1                P             -0.05787581
         1                P             -0.07888903
         1                P              0.00040399
         1                P              0.00009360
         1                P              0.00001675
         1                P             -0.00074576
         1                P              0.63472427
         1                P              0.00371303
         1                P             -0.05787581
         1                P             -0.07888903
         1                P              0.00040399
         1                P              0.00009360
         1                P              0.00001675
         1                P             -0.00074576
         1                P              1.26093121
         1                P             -0.03390102
         1                P             -0.18338258
         1                P             -0.09469318
         1                P              0.00023258
         1                P              0.00008099
         1                P              0.00002326
         1                P             -0.00019060
         1                D              0.00109950
         1                D              0.00481861
         1                D              0.00050695
         1                D              0.00001981
         1                D              0.00000296
         1                D             -0.00027651
         1                D              0.00030035
         1                D              0.00169169
         1                D              0.00078511
         1                D              0.00001557
         1                D              0.00000439
         1                D             -0.00000192
         1                D              0.00303864
         1                D              0.02334247
         1                D              0.02051800
         1                D              0.00004073
         1                D              0.00000457
         1                D             -0.00102664
         1                D              0.00109950
         1                D              0.00481861
         1                D              0.00050695
         1                D              0.00001981
         1                D              0.00000296
         1                D             -0.00027651
         1                D              0.00303864
         1                D              0.02334247
         1                D              0.02051800
         1                D              0.00004073
         1                D              0.00000457
         1                D             -0.00102664
         1                D              0.00379727
         1                D              0.01589106
         1                D              0.00045758
         1                D              0.00004808
         1                D              0.00000308
         1                D             -0.00110220
         1                F              0.00024974
         1                F              0.00063417
         1                F              0.00000035
         1                F              0.00022051
         1                F              0.00012292
         1                F              0.00029419
         1                F              0.00000067
         1                F              0.00007940
         1                F              0.00063633
         1                F              0.00036049
         1                F              0.00000072
         1                F             -0.00016163
         1                F              0.00012292
         1                F              0.00029419
         1                F              0.00000067
         1                F              0.00007940
         1                F              0.00014406
         1                F              0.00019053
         1                F              0.00000087
         1                F             -0.00003086
         1                F              0.00125257
         1                F              0.00321663
         1                F              0.00000074
         1                F              0.00116428
         1                F              0.00024974
         1                F              0.00063417
         1                F              0.00000035
         1                F              0.00022051
         1                F              0.00063633
         1                F              0.00036049
         1                F              0.00000072
         1                F             -0.00016163
         1                F              0.00125257
         1                F              0.00321663
         1                F              0.00000074
         1                F              0.00116428
         1                F              0.00075241
         1                F              0.00035363
         1                F              0.00000038
         1                F             -0.00019494
         1                G              0.00002349
         1                G             -0.00002427
         1                G              0.00001182
         1                G              0.00000250
         1                G              0.00034973
         1                G              0.00002031
         1                G              0.00002168
         1                G             -0.00000890
         1                G              0.00014026
         1                G              0.00001286
         1                G              0.00020932
         1                G             -0.00026160
         1                G              0.00001182
         1                G              0.00000250
         1                G              0.00014026
         1                G              0.00001286
         1                G              0.00005852
         1                G             -0.00002368
         1                G              0.00060595
         1                G              0.00003205
         1                G              0.00002349
         1                G             -0.00002427
         1                G              0.00034973
         1                G              0.00002031
         1                G              0.00020932
         1                G             -0.00026160
         1                G              0.00060595
         1                G              0.00003205
         1                G              0.00012004
         1                G             -0.00016651
         2                S              1.99754273
         2                S              1.87711192
         2                S              0.00699493
         2                S             -0.08338105
         2                S             -0.00678303
         2                S             -0.00053907
         2                S             -0.00014952
         2                S              0.00011377
         2                S              0.03504848
         2                P              1.46957942
         2                P              0.00067447
         2                P             -0.02113749
         2                P             -0.02545860
         2                P              0.00040355
         2                P              0.00001825
         2                P              0.00002228
         2                P              0.00743879
         2                P              1.46957942
         2                P              0.00067447
         2                P             -0.02113749
         2                P             -0.02545860
         2                P              0.00040355
         2                P              0.00001825
         2                P              0.00002228
         2                P              0.00743879
         2                P              1.59512569
         2                P             -0.00234627
         2                P             -0.10972411
         2                P             -0.08920023
         2                P              0.00049444
         2                P              0.00001617
         2                P              0.00002515
         2                P             -0.00095681
         2                D              0.00040916
         2                D              0.00272701
         2                D              0.00241631
         2                D              0.00001618
         2                D              0.00000203
         2                D              0.00054944
         2                D              0.00046213
         2                D              0.00265405
         2                D              0.00253536
         2                D              0.00002202
         2                D              0.00000302
         2                D              0.00021521
         2                D              0.00072151
         2                D              0.00693761
         2                D              0.01279960
         2                D              0.00002762
         2                D              0.00000307
         2                D              0.00376421
         2                D              0.00040916
         2                D              0.00272701
         2                D              0.00241631
         2                D              0.00001618
         2                D              0.00000203
         2                D              0.00054944
         2                D              0.00072151
         2                D              0.00693761
         2                D              0.01279960
         2                D              0.00002762
         2                D              0.00000307
         2                D              0.00376421
         2                D              0.00071237
         2                D              0.00559991
         2                D              0.00459453
         2                D              0.00002070
         2                D              0.00000209
         2                D              0.00176735
         2                F              0.00007426
         2                F              0.00034908
         2                F              0.00000044
         2                F              0.00020900
         2                F              0.00011526
         2                F              0.00032803
         2                F              0.00000086
         2                F              0.00010345
         2                F              0.00018344
         2                F              0.00057730
         2                F              0.00000091
         2                F             -0.00008775
         2                F              0.00011526
         2                F              0.00032803
         2                F              0.00000086
         2                F              0.00010345
         2                F              0.00015762
         2                F              0.00046018
         2                F              0.00000112
         2                F              0.00014205
         2                F              0.00021502
         2                F              0.00143840
         2                F              0.00000092
         2                F              0.00104712
         2                F              0.00007426
         2                F              0.00034908
         2                F              0.00000044
         2                F              0.00020900
         2                F              0.00018344
         2                F              0.00057730
         2                F              0.00000091
         2                F             -0.00008775
         2                F              0.00021502
         2                F              0.00143840
         2                F              0.00000092
         2                F              0.00104712
         2                F              0.00013951
         2                F              0.00046294
         2                F              0.00000047
         2                F             -0.00021170
         2                G              0.00001618
         2                G              0.00000753
         2                G              0.00002374
         2                G              0.00002176
         2                G              0.00006126
         2                G              0.00010328
         2                G              0.00003307
         2                G              0.00002683
         2                G              0.00005391
         2                G              0.00006662
         2                G              0.00009994
         2                G              0.00001515
         2                G              0.00002374
         2                G              0.00002176
         2                G              0.00005391
         2                G              0.00006662
         2                G              0.00005625
         2                G              0.00004321
         2                G              0.00008658
         2                G              0.00016216
         2                G              0.00001618
         2                G              0.00000753
         2                G              0.00006126
         2                G              0.00010328
         2                G              0.00009994
         2                G              0.00001515
         2                G              0.00008658
         2                G              0.00016216
         2                G              0.00004788
         2                G             -0.00000431
 -------------------------------------------------------
  Population analysis by atoms (atomic charges).
 -------------------------------------------------------
     Z-matrix
      Center          Function          Population
 -------------------------------------------------------
         1                               5.82628638
         2                               8.17371362
 -------------------------------------------------------
 @CHECKOUT-I, Total execution time (CPU/WALL):        1.06/       0.28 seconds.
--executable xprops finished with status     0 in        0.32 seconds (walltime).
  The final electronic energy is      -113.285860784918341 a.u. 
  This computation required                          824.82 seconds (walltime).
