 --invoking executable--
/nfs/workspaces/public/cfour_mpi/bin/xjoda


   *************************************************************************
         <<<     CCCCCC     CCCCCC   |||     CCCCCC     CCCCCC   >>>
       <<<      CCC        CCC       |||    CCC        CCC         >>>
      <<<      CCC        CCC        |||   CCC        CCC            >>>
    <<<        CCC        CCC        |||   CCC        CCC              >>>
      <<<      CCC        CCC        |||   CCC        CCC            >>>
       <<<      CCC        CCC       |||    CCC        CCC         >>>
         <<<     CCCCCC     CCCCCC   |||     CCCCCC     CCCCCC   >>>
   *************************************************************************

     ****************************************************************
     * CFOUR Coupled-Cluster techniques for Computational Chemistry *
     ****************************************************************
 

   Department of Chemistry                Institut fuer Physikalische Chemie
   University of Florida                  Universitaet Mainz
   Gainesville, FL 32611, USA             D-55099 Mainz, Germany

   Department of Chemistry                Fakultaet fuer Chemie und Biowiss.
   Johns Hopkins University               Karlsruher Institut fuer Technologie
   Baltimore, MD 21218, USA               D-76131 Karlsruhe, Germany

   Department of Chemistry                Department of Physical Chemistry
   Southern Methodist University          Eotvos Lorand University
   Dallas, TX 75275, USA                  H-1053 Budapest, Hungary

 
                       Version 2.1
 
                     vincent.theory.phys.ucl.ac.uk                     
                     Fri  7 Feb 11:59:51 GMT 2025                      
                     integer*8 version is running
 
********************************************************************************
*                          Input from ZMAT file                                *
********************************************************************************
Carbon Monoxide DBOC calculation                                                
C                                                                               
O 1 r                                                                           
                                                                                
r=1.12825                                                                       
                                                                                
                                                                                
*CFOUR(CALC=CCSD,BASIS=AUG-PCVQZ,SCF_CONV=10                                    
CC_CONV=14,DBOC=ON,MEMORY=500000000                                             
ZFIELD=0)                                                                       
                                                                                
%isotopes                                                                       
12                                                                              
18                                                                              
                                                                                
%integrals                                                                      
dipole                                                                          
********************************************************************************
  @GTFLGS-I, Hessian will be transformed to curvilinear coordinates.
    -------------------------------------------------------------------
                    CFOUR Control Parameters 
    -------------------------------------------------------------------
        External           Internal           Value            Units
          Name               Name
    -------------------------------------------------------------------
       ABCDTYPE             IABCDT         STANDARD    [  0]    ***   
       ANHARMONIC           IANHAR         OFF         [  0]    ***   
       ANH_ALGORIT          IANALG         STANDARD    [  0]    ***   
       ANH_DERIVAT          IANDER         SECOND      [  1]    ***   
       ANH_MODE             ANHMOD         VIBRATION   [  0]    ***   
       ANH_STEPSIZ          ICUBST             50000          x 10-6  
       ANH_SYMMETR          IANHSM         ABELIAN     [  0]    ***   
       AO_LADDERS           IAOLAD         SINGLEPASS  [  1]    ***   
       AV_SCF               IAVSCF         OFF         [  0]    ***   
       BASIS                IBASIS         AUG-PCVQZ   [ 52]    ***   
       BOTHVECTORS          BOTHVC         OFF         [  0]    ***   
       BOX_POTENT           IPIAB          OFF         [  0]    ***   
       BREIT                IBREIT         OFF         [  0]    ***   
       BRUCK_CONV           IBRTOL          10D-  4             ***   
       BRUECKNER            IBRKNR         OFF         [  0]    ***   
       BUFFERSIZE           IBUFFS              4096            ***   
       CACHE_RECS           ICHREC             10               ***   
       CALCLEVEL            ICLLVL         CCSD        [ 10]    ***   
       CCORBOPT             ICCORB         OFF         [  0]  x 0.01  
       CC_CONV              ICCCNV          10D- 14             ***   
       CC_EXPORDER          ICCEOR              5               ***   
       CC_EXTRAPOL          ICCEXT         DIIS        [  1]    ***   
       CC_GUESS             ICCGES         MP2         [  0]    ***   
       CC_MAXCYC            ICCCYC            100              cycles 
       CC_PROGRAM           ICCPRO         VCC         [  0]    ***   
       CHARGE               ICHRGE              0               ***   
       CHOLESKY             ICHOLE         OFF         [  0]    ***   
       CIS_CONV             ICISTL              5               ***   
       COMM_SIZE            IPSIZE            ***               ***   
       CONSTANT             ICONST         OLD         [  1]    ***   
       CONTINUUM            ICONTU         NONE        [  0]    ***   
       CONTRACTION          ICNTYP         GENERAL     [  1]    ***   
       COORDINATES          ICOORD         INTERNAL    [  0]    ***   
       CPHF_CONVER          ICPHFT          10D- 16             ***   
       CPHF_MAXCYC          ICPHFC             64              cycles 
       CUBIC                ICUBIC         OFF         [  0]    ***   
       CURVILINEAR          ICURVY         ON          [  1]    ***   
       DBOC                 IDBOC          ON          [  1]    ***   
       DCT                  IDCT           OFF         [  0]    ***   
       DERIV_LEV            IDRLVL         SECOND      [  2]    ***   
       DEVMEM_SIZE          IDVMEM          50000000           MByte  
       DIAG_MRCC            IEOMST          10D-  0             ***   
       DIFF_TYPE            IDIFTY         RELAXED     [  0]    ***   
       DIRECT               IDIRCT         OFF         [  0]    ***   
       DROPMO               IDRPMO      NONE         
       ECP                  IECP           OFF         [  0]    ***   
       EIGENVECTOR          IVEC                1               ***   
       EL_ANHARM            IELANH         OFF         [  0]    ***   
       EOMFOLLOW            IEOMSR         ENERGY      [  0]    ***   
       EOMIP                IEOMIP         OFF         [  0]    ***   
       EOMLEVEL             HBARFM         SAME        [  0]    ***   
       EOM_MRCC             IMRCCE         NEW         [  1]    ***   
       EOM_NONIT            EOMNON         OFF         [  0]    ***   
       EOM_NSING            IEOMSI          10D-  0             ***   
       EOM_NSTATES          IMRCCD         DAVIDSON    [  0]    ***   
       EOM_NTRIP            IEOMTR          10D-  0             ***   
       EOM_ORDER            IEXORD         ENERGY      [  0]    ***   
       EOM_PROPSTA          IEOMST              0               ***   
       ESTATE_CONV          IEXTOL          10D-  5             ***   
       ESTATE_DIAG          IEXDIG         ITERATIVE   [  0]    ***   
       ESTATE_LOCK          IESLOC         ON          [  1]    ***   
       ESTATE_MAXC          IEXMXC             40               ***   
       ESTATE_PROP          IEXPRP         OFF         [  0]    ***   
       EVAL_HESS            IRECAL              0            # of cyc.
       EXCITATION           IEXCIT              0               ***   
       EXCITE               IEXCIT         NONE        [  0]    ***   
       EXTERN_POT           IEXPOT         OFF         [  0]    ***   
       FCGRADNEW            IFCGNW         OFF         [  0]    ***   
       FC_FIELD             IFINFC              0             x 10-6  
       FD_CALTYPE           IFDCAL         GRADONLY    [  0]    ***   
       FD_PROJECT           IFDPRJ         OFF         [  1]    ***   
       FD_STEPSIZE          IDISFD              0            10-4 bohr
       FD_USEGROUP          IFDGRP         FULL        [  0]    ***   
       FILE_RECSIZ          IFLREC              4096           words  
       FINITE_PERT          IFIPER              0             x 10-6  
       FIXGEOM              IFIXGM         OFF         [  0]    ***   
       FOCK                 IFOCK          AO          [  1]    ***   
       FREQ_ALGORI          IVIALG         STANDARD    [  0]    ***   
       FROZEN_CORE          IFROCO         OFF         [  0]    ***   
       GAMMA_ABCD           IGABCD         STORE       [  0]    ***   
       GAMMA_ABCI           IGABCI         STORE       [  0]    ***   
       GENBAS_1             IGNBS1              0               ***   
       GENBAS_2             IGNBS2              0               ***   
       GENBAS_3             IGNBS3              0               ***   
       GENBAS_4             IGNBS4              0               ***   
       GEO_CONV             ICONTL              5              H/bohr 
       GEO_MAXCYC           IOPTCY             50               ***   
       GEO_MAXSTEP          IMXSTP            300            millibohr
       GEO_METHOD           INR            SINGLE_POINT[  5]    ***   
       GIAO                 IGIAO          OFF         [  1]    ***   
       GIMIC                IGIMIC         OFF         [  0]    ***   
       GRID                 IGRID          OFF         [  0]    ***   
       GRID_ALGO            IGALGO         SERIAL      [  0]    ***   
       GUESS                IGUESS         MOREAD      [  0]    ***   
       HBAR                 IHBAR          OFF         [  0]    ***   
       HESS_TYPE            IHESTP         SCF         [  0]    ***   
       HF2_FILE             IHF2Fl         USE         [  1]    ***   
       HFSTABILITY          ISTABL         OFF         [  0]    ***   
       INCORE               INCORE         OFF         [  0]    ***   
       INPUT_MRCC           IMRCC          ON          [  1]    ***   
       INTEGRALS            INTTYP         VMOL        [  1]    ***   
       JODA_PRINT           IJPRNT              0               ***   
       KEYWORD_OUT          IDMPKW         NO          [  0]    ***   
       LINDEP_TOL           ILINDP              8               ***   
       LINEQ_CONV           IZTACN          10D-  7           cycles  
       LINEQ_EXPOR          ILMAXD              5               ***   
       LINEQ_MAXCY          ILMAXC            100               ***   
       LINEQ_TYPE           ILTYPE         DIIS        [  1]    ***   
       LOCK_ORBOCC          ILOCOC         OFF         [  0]    ***   
       MEMORY_SIZE          IMEMSZ         500000000           words  
       MEM_UNIT             IMEMU          INTEGERWORDS[  0]    ***   
       MRCC                 IMRCCC         OFF         [  0]    ***   
       MULTIPLICTY          IMULTP              1               ***   
       NACOUPLING           IVCOUP         OFF         [  0]    ***   
       NEGEVAL              IDIE           ABORT       [  0]    ***   
       NEWNORM              INEWNO         OFF         [  0]    ***   
       NON-HF               INONHF         OFF         [  0]    ***   
       NTOP_TAMP            ITOPT2             15               ***   
       NUC_MODEL            INUCMO         POINT       [  0]    ***   
       OCCUPATION           IOCCU   ESTIMATED BY SCF 
       OPEN-SHELL           IOPEN          SPIN-ORBITAL[  0]    ***   
       OPTVIB               IOPTVB         OFF         [  0]    ***   
       ORBITALS             IORBTP         STANDARD    [  0]    ***   
       PARALLEL             IPARAL         ON          [  1]    ***   
       PARA_INT             IPINTS         ON          [  1]    ***   
       PARA_PRINT           IPPRIN              0               ***   
       PERT_ORB             IPTORB         STANDARD    [  0]    ***   
       POINTS               IGRDFD              0               ***   
       PRINT                IPRNT               0               ***   
       PROPS                IPROPS         OFF         [  0]    ***   
       PROP_INTEGR          IINTYP         INTERNAL    [  0]    ***   
       PSI                  IPSI           OFF         [  0]    ***   
       QC_ALG               IQCALG         FLM         [  0]    ***   
       QC_LINALG            IQCLIN         TRIDIAG     [  2]    ***   
       QC_MAXCYC            IQCMAX          10D-100           cycles  
       QC_MAXSCFCY          IQCMSC          10D- 15           cycles  
       QC_RTRUST            IQCRTR          10D-  0           x 10-3  
       QC_SKIPSCF           IQCSKI         OFF         [  0]    ***   
       QC_START             IQCSTA          10D-  1             ***   
       QRHFGUESS            IQGUES         OFF         [  0]    ***   
       QUARTIC              IQUART         OFF         [  0]    ***   
       RAMAN_INT            IRAMIN         OFF         [  0]    ***   
       RAMAN_ORB            IRAMRE         UNRELAXED   [  0]    ***   
       RDO                  IRDOFM         ON          [  1]    ***   
       REDUCE_REPR          REDREP         Ir          [  0]    ***   
       REFERENCE            IREFNC         RHF         [  0]    ***   
       RELATIVIST           IRELAT         OFF         [  0]    ***   
       RELAX_DENS           IRDENS         ON          [  1]    ***   
       RESET_FLAGS          IRESET         OFF         [  0]    ***   
       RESTART_CC           ICCRES         OFF         [  0]    ***   
       ROT_EVEC             ROTVEC              0               ***   
       SAVE_INTS            ISVINT         OFF         [  0]    ***   
       SCALE_ON             ISTCRT              0               ***   
       SCF_CONV             ISCFCV          10D- 10             ***   
       SCF_DAMPING          IDAMP               0             x 10-3  
       SCF_EXPORDE          IRPPOR              6               ***   
       SCF_EXPSTAR          IRPPLS              8               ***   
       SCF_EXTRAPO          IRPP           ON          [  1]    ***   
       SCF_MAXCYC           ISCFCY            150              cycles 
       SCF_NOSTOP           ISCFST         OFF         [  0]    ***   
       SCF_PRINT            ISCFPR              0               ***   
       SCF_PROG             ISCFPR         SCF         [  0]    ***   
       SD_FIELD             IFINSD              0             x 10-6  
       SOPERT               IPERSO         OFF         [  0]    ***   
       SPHERICAL            IDFGHI         ON          [  1]    ***   
       SPINORBIT            ISOCAL         OFF         [  0]    ***   
       SPINROTATIO          ISRCON         OFF         [  0]    ***   
       SPIN_FLIP            ISPFLP         OFF         [  0]    ***   
       SPIN_ORBIT           ISPORB         OFF         [  0]    ***   
       SPIN_SCAL            ISCSMP         OFF         [  0]    ***   
       STEEPSCALE           ISTPSC              1000          x 10-3  
       SUBGROUP             ISUBGP         DEFAULT     [  0]    ***   
       SUBGRPAXIS           ISBXYZ         X           [  0]    ***   
       SYMMETRY             ISYM           ON          [  0]    ***   
       SYM_CHECK            ISYMCK         OVERRIDE    [  1]    ***   
       T3_EXTRAPOL          IT3EXT         OFF         [  0]    ***   
       T4_EXTRAPOL          IT4EXP         OFF         [  0]    ***   
       TAMP_SUM             IEVERY              5               ***   
       TESTSUITE            ITESTS         OFF         [  0]    ***   
       THERMOCH             ITHERM         OFF         [  0]    ***   
       TOL_CHOLESK          ITOLCH          10D-  4             ***   
       TRANGRAD             IRESRM         OFF         [  0]    ***   
       TRANS_INV            ITRAIN         IGNORE      [  1]    ***   
       TREAT_PERT           ITREAT         SIMULTANEOUS[  0]    ***   
       TRIP_ALGORI          ITRALG         NORMAL      [  0]    ***   
       UIJ_THRESHO          IUIJTH              1               ***   
       UNITS                IUNITS         ANGSTROM    [  0]    ***   
       UNOS                 IUNOS          OFF         [  0]    ***   
       UPDATE_HESS          IHUPDT         ON          [  1]    ***   
       VIBPHASE             ISETPH         STANDARD    [  0]    ***   
       VIBRATION            IVIB           ANALYTIC    [  1]    ***   
       VIB_ALGORIT          IGEALG         STANDARD    [  0]    ***   
       VNATORB              IVNORB         OFF         [  0]    ***   
       VTRAN                IVTRAN         FULL/PARTIAL[  0]    ***   
       XFIELD               IXEFLD              0             x 10-6  
       XFORM_TOL            IXFTOL          10D- 11             ***   
       YFIELD               IYEFLD              0             x 10-6  
       ZFIELD               IZEFLD              0             x 10-6  
       ZSCALE_EXP           IZEXPS         OFF         [  0]    ***   
    -------------------------------------------------------------------
   2 entries found in Z-matrix 
   Job Title : Carbon Monoxide DBOC calculation                                                
   There are  1 unique internal coordinates.
   Of these,  0 will be optimized.
   User supplied Z-matrix: 
--------------------------------------------------------------------------------
       SYMBOL    BOND      LENGTH    ANGLE     ANGLE     DIHED     ANGLE
                  TO      (ANGST)    WRT      (DEG)      WRT      (DEG)
--------------------------------------------------------------------------------
        C    
        O          1         r    
                  *Initial values for internal coordinates* 
                      Name             Value
                        r               1.1282500000
--------------------------------------------------------------------------------
  read isotopes from ZMAT file 
   Rotational constants (in cm-1): 
          1.8393377259             1.8393377259
   Rotational constants (in MHz): 
      55141.9655206801         55141.9655206801
********************************************************************************
   The full molecular point group is CXv .
   The largest Abelian subgroup of the full molecular point group is C2v .
   The computational point group is C2v .
********************************************************************************
--------------------------------------------------------------------------------
   Analysis of internal coordinates specified by Z-matrix 
--------------------------------------------------------------------------------
   *The nuclear repulsion energy is   22.513184843784618 a.u.
   *There is   1 degree of freedom within the tot. symm. molecular subspace.
   *Z-matrix requests optimization of   0 coordinates.
   *The optimization is constrained.
   *The following   1 parameters can have non-zero 
    derivatives within the totally symmetric subspace:
             r    [ 1]
   *The following   0 parameters are to be optimized:

   *The following coordinates must be varied in an  unconstrained optimization.
             r    [ 1]
--------------------------------------------------------------------------------


 ----------------------------------------------------------------
         Coordinates used in calculation (QCOMP) 
 ----------------------------------------------------------------
 Z-matrix   Atomic            Coordinates (in bohr)
  Symbol    Number           X              Y              Z
 ----------------------------------------------------------------
     C         6        -0.00000000     0.00000000     1.27922650
     O         8         0.00000000     0.00000000    -0.85285745
 ----------------------------------------------------------------
 
   Interatomic distance matrix (Angstroms) 
 
                 C             O    
                [ 1]        [ 2]
  C    [ 1]     0.00000
  O    [ 2]     1.12825     0.00000
 rotcon2
   Rotational constants (in cm-1): 
          1.8393377259             0.0000000000
   Rotational constants (in MHz): 
      55141.9655206801             0.0000000000
  ECPDATA file not present.   Using default ECPDATA. 
  @GTFLGS-I, Hessian will be transformed to curvilinear coordinates.
  There are  218 basis functions.
 @CHECKOUT-I, Total execution time (CPU/WALL):        0.12/       0.15 seconds.
--executable xjoda finished with status     0 in        0.17 seconds (walltime).
 --invoking executable--
/nfs/workspaces/public/cfour_mpi/bin/xvmol
 SERIAL VERSION OF MOLECULE STARTED
********************************************************************************
                    INPUT FROM MOL FILE
********************************************************************************
INTGRL        1    0    1    0    0    0    0    0    0                         
         *** CFOUR Program System (Release V0.1) ***                            
Carbon Monoxide DBOC calculation                                                
    2    2 X  Y       0.10E-08              0    0                              
   9999.00      3.00                                                            
          6.00000000    1    5    1    1    1    1    1                         
C #1  -0.000000000000000   0.000000000000000   1.279226496685937                
   16    9                                                                      
   33980.0000000000       9.100000000000000E-005 -1.900000000000000E-005        
  0.000000000000000E+000  0.000000000000000E+000  0.000000000000000E+000        
  0.000000000000000E+000  0.000000000000000E+000  0.000000000000000E+000        
  0.000000000000000E+000                                                        
   5089.00000000000       7.040000000000000E-004 -1.510000000000000E-004        
  0.000000000000000E+000  0.000000000000000E+000  0.000000000000000E+000        
  0.000000000000000E+000  0.000000000000000E+000  0.000000000000000E+000        
  0.000000000000000E+000                                                        
   1157.00000000000       3.693000000000000E-003 -7.850000000000000E-004        
  0.000000000000000E+000  0.000000000000000E+000  0.000000000000000E+000        
  0.000000000000000E+000  0.000000000000000E+000  0.000000000000000E+000        
  0.000000000000000E+000                                                        
   326.600000000000       1.536000000000000E-002 -3.324000000000000E-003        
  0.000000000000000E+000  0.000000000000000E+000  0.000000000000000E+000        
  0.000000000000000E+000  0.000000000000000E+000  0.000000000000000E+000        
  0.000000000000000E+000                                                        
   106.100000000000       5.292900000000000E-002 -1.151200000000000E-002        
  0.000000000000000E+000  0.000000000000000E+000  0.000000000000000E+000        
  0.000000000000000E+000  0.000000000000000E+000  0.000000000000000E+000        
  0.000000000000000E+000                                                        
   38.1100000000000       0.147043000000000      -3.416000000000000E-002        
  0.000000000000000E+000  0.000000000000000E+000  0.000000000000000E+000        
  0.000000000000000E+000  0.000000000000000E+000  0.000000000000000E+000        
  0.000000000000000E+000                                                        
   14.7500000000000       0.305631000000000      -7.717300000000001E-002        
  0.000000000000000E+000  0.000000000000000E+000  0.000000000000000E+000        
  0.000000000000000E+000  0.000000000000000E+000  0.000000000000000E+000        
  0.000000000000000E+000                                                        
   6.03500000000000       0.399345000000000      -0.141493000000000             
  0.000000000000000E+000  0.000000000000000E+000  0.000000000000000E+000        
  0.000000000000000E+000  0.000000000000000E+000  0.000000000000000E+000        
  0.000000000000000E+000                                                        
   2.53000000000000       0.217051000000000      -0.118019000000000             
  0.000000000000000E+000  0.000000000000000E+000  0.000000000000000E+000        
  0.000000000000000E+000  0.000000000000000E+000  0.000000000000000E+000        
  0.000000000000000E+000                                                        
  0.735500000000000       1.589400000000000E-002  0.273806000000000             
   1.00000000000000       0.000000000000000E+000  0.000000000000000E+000        
  0.000000000000000E+000  0.000000000000000E+000  0.000000000000000E+000        
  0.000000000000000E+000                                                        
  0.290500000000000      -3.084000000000000E-003  0.586510000000000             
  0.000000000000000E+000   1.00000000000000       0.000000000000000E+000        
  0.000000000000000E+000  0.000000000000000E+000  0.000000000000000E+000        
  0.000000000000000E+000                                                        
  0.111100000000000       9.779999999999999E-004  0.285430000000000             
  0.000000000000000E+000  0.000000000000000E+000   1.00000000000000             
  0.000000000000000E+000  0.000000000000000E+000  0.000000000000000E+000        
  0.000000000000000E+000                                                        
   7.21600000000000       0.000000000000000E+000  0.000000000000000E+000        
  0.000000000000000E+000  0.000000000000000E+000  0.000000000000000E+000        
   1.00000000000000       0.000000000000000E+000  0.000000000000000E+000        
  0.000000000000000E+000                                                        
   19.5700000000000       0.000000000000000E+000  0.000000000000000E+000        
  0.000000000000000E+000  0.000000000000000E+000  0.000000000000000E+000        
  0.000000000000000E+000   1.00000000000000       0.000000000000000E+000        
  0.000000000000000E+000                                                        
   53.0730000000000       0.000000000000000E+000  0.000000000000000E+000        
  0.000000000000000E+000  0.000000000000000E+000  0.000000000000000E+000        
  0.000000000000000E+000  0.000000000000000E+000   1.00000000000000             
  0.000000000000000E+000                                                        
  4.145000000000000E-002  0.000000000000000E+000  0.000000000000000E+000        
  0.000000000000000E+000  0.000000000000000E+000  0.000000000000000E+000        
  0.000000000000000E+000  0.000000000000000E+000  0.000000000000000E+000        
   1.00000000000000                                                             
   10    8                                                                      
   34.5100000000000       5.378000000000000E-003  0.000000000000000E+000        
  0.000000000000000E+000  0.000000000000000E+000  0.000000000000000E+000        
  0.000000000000000E+000  0.000000000000000E+000  0.000000000000000E+000        
   7.91500000000000       3.613200000000000E-002  0.000000000000000E+000        
  0.000000000000000E+000  0.000000000000000E+000  0.000000000000000E+000        
  0.000000000000000E+000  0.000000000000000E+000  0.000000000000000E+000        
   2.36800000000000       0.142493000000000       0.000000000000000E+000        
  0.000000000000000E+000  0.000000000000000E+000  0.000000000000000E+000        
  0.000000000000000E+000  0.000000000000000E+000  0.000000000000000E+000        
  0.813200000000000       0.342150000000000        1.00000000000000             
  0.000000000000000E+000  0.000000000000000E+000  0.000000000000000E+000        
  0.000000000000000E+000  0.000000000000000E+000  0.000000000000000E+000        
  0.289000000000000       0.463864000000000       0.000000000000000E+000        
   1.00000000000000       0.000000000000000E+000  0.000000000000000E+000        
  0.000000000000000E+000  0.000000000000000E+000  0.000000000000000E+000        
  0.100700000000000       0.250028000000000       0.000000000000000E+000        
  0.000000000000000E+000   1.00000000000000       0.000000000000000E+000        
  0.000000000000000E+000  0.000000000000000E+000  0.000000000000000E+000        
   8.18200000000000       0.000000000000000E+000  0.000000000000000E+000        
  0.000000000000000E+000  0.000000000000000E+000   1.00000000000000             
  0.000000000000000E+000  0.000000000000000E+000  0.000000000000000E+000        
   24.1860000000000       0.000000000000000E+000  0.000000000000000E+000        
  0.000000000000000E+000  0.000000000000000E+000  0.000000000000000E+000        
   1.00000000000000       0.000000000000000E+000  0.000000000000000E+000        
   71.4940000000000       0.000000000000000E+000  0.000000000000000E+000        
  0.000000000000000E+000  0.000000000000000E+000  0.000000000000000E+000        
  0.000000000000000E+000   1.00000000000000       0.000000000000000E+000        
  3.218000000000000E-002  0.000000000000000E+000  0.000000000000000E+000        
  0.000000000000000E+000  0.000000000000000E+000  0.000000000000000E+000        
  0.000000000000000E+000  0.000000000000000E+000   1.00000000000000             
    6    6                                                                      
   1.84800000000000        1.00000000000000       0.000000000000000E+000        
  0.000000000000000E+000  0.000000000000000E+000  0.000000000000000E+000        
  0.000000000000000E+000                                                        
  0.649000000000000       0.000000000000000E+000   1.00000000000000             
  0.000000000000000E+000  0.000000000000000E+000  0.000000000000000E+000        
  0.000000000000000E+000                                                        
  0.228000000000000       0.000000000000000E+000  0.000000000000000E+000        
   1.00000000000000       0.000000000000000E+000  0.000000000000000E+000        
  0.000000000000000E+000                                                        
   8.65600000000000       0.000000000000000E+000  0.000000000000000E+000        
  0.000000000000000E+000   1.00000000000000       0.000000000000000E+000        
  0.000000000000000E+000                                                        
   33.2130000000000       0.000000000000000E+000  0.000000000000000E+000        
  0.000000000000000E+000  0.000000000000000E+000   1.00000000000000             
  0.000000000000000E+000                                                        
  7.660000000000000E-002  0.000000000000000E+000  0.000000000000000E+000        
  0.000000000000000E+000  0.000000000000000E+000  0.000000000000000E+000        
   1.00000000000000                                                             
    4    4                                                                      
   1.41900000000000        1.00000000000000       0.000000000000000E+000        
  0.000000000000000E+000  0.000000000000000E+000                                
  0.485000000000000       0.000000000000000E+000   1.00000000000000             
  0.000000000000000E+000  0.000000000000000E+000                                
   24.6940000000000       0.000000000000000E+000  0.000000000000000E+000        
   1.00000000000000       0.000000000000000E+000                                
  0.187000000000000       0.000000000000000E+000  0.000000000000000E+000        
  0.000000000000000E+000   1.00000000000000                                     
    2    2                                                                      
   1.01100000000000        1.00000000000000       0.000000000000000E+000        
  0.424000000000000       0.000000000000000E+000   1.00000000000000             
          8.00000000    1    5    1    1    1    1    1                         
O #2   0.000000000000000   0.000000000000000  -0.852857450257346                
   16    9                                                                      
   61420.0000000000       9.000000000000001E-005 -2.000000000000000E-005        
  0.000000000000000E+000  0.000000000000000E+000  0.000000000000000E+000        
  0.000000000000000E+000  0.000000000000000E+000  0.000000000000000E+000        
  0.000000000000000E+000                                                        
   9199.00000000000       6.980000000000001E-004 -1.590000000000000E-004        
  0.000000000000000E+000  0.000000000000000E+000  0.000000000000000E+000        
  0.000000000000000E+000  0.000000000000000E+000  0.000000000000000E+000        
  0.000000000000000E+000                                                        
   2091.00000000000       3.664000000000000E-003 -8.290000000000000E-004        
  0.000000000000000E+000  0.000000000000000E+000  0.000000000000000E+000        
  0.000000000000000E+000  0.000000000000000E+000  0.000000000000000E+000        
  0.000000000000000E+000                                                        
   590.900000000000       1.521800000000000E-002 -3.508000000000000E-003        
  0.000000000000000E+000  0.000000000000000E+000  0.000000000000000E+000        
  0.000000000000000E+000  0.000000000000000E+000  0.000000000000000E+000        
  0.000000000000000E+000                                                        
   192.300000000000       5.242300000000000E-002 -1.215600000000000E-002        
  0.000000000000000E+000  0.000000000000000E+000  0.000000000000000E+000        
  0.000000000000000E+000  0.000000000000000E+000  0.000000000000000E+000        
  0.000000000000000E+000                                                        
   69.3200000000000       0.145921000000000      -3.626100000000000E-002        
  0.000000000000000E+000  0.000000000000000E+000  0.000000000000000E+000        
  0.000000000000000E+000  0.000000000000000E+000  0.000000000000000E+000        
  0.000000000000000E+000                                                        
   26.9700000000000       0.305258000000000      -8.299200000000000E-002        
  0.000000000000000E+000  0.000000000000000E+000  0.000000000000000E+000        
  0.000000000000000E+000  0.000000000000000E+000  0.000000000000000E+000        
  0.000000000000000E+000                                                        
   11.1000000000000       0.398508000000000      -0.152090000000000             
  0.000000000000000E+000  0.000000000000000E+000  0.000000000000000E+000        
  0.000000000000000E+000  0.000000000000000E+000  0.000000000000000E+000        
  0.000000000000000E+000                                                        
   4.68200000000000       0.216980000000000      -0.115331000000000             
  0.000000000000000E+000  0.000000000000000E+000  0.000000000000000E+000        
  0.000000000000000E+000  0.000000000000000E+000  0.000000000000000E+000        
  0.000000000000000E+000                                                        
   1.42800000000000       1.759400000000000E-002  0.288979000000000             
   1.00000000000000       0.000000000000000E+000  0.000000000000000E+000        
  0.000000000000000E+000  0.000000000000000E+000  0.000000000000000E+000        
  0.000000000000000E+000                                                        
  0.554700000000000      -2.502000000000000E-003  0.586128000000000             
  0.000000000000000E+000   1.00000000000000       0.000000000000000E+000        
  0.000000000000000E+000  0.000000000000000E+000  0.000000000000000E+000        
  0.000000000000000E+000                                                        
  0.206700000000000       9.540000000000000E-004  0.277624000000000             
  0.000000000000000E+000  0.000000000000000E+000   1.00000000000000             
  0.000000000000000E+000  0.000000000000000E+000  0.000000000000000E+000        
  0.000000000000000E+000                                                        
   12.9740000000000       0.000000000000000E+000  0.000000000000000E+000        
  0.000000000000000E+000  0.000000000000000E+000  0.000000000000000E+000        
   1.00000000000000       0.000000000000000E+000  0.000000000000000E+000        
  0.000000000000000E+000                                                        
   34.9000000000000       0.000000000000000E+000  0.000000000000000E+000        
  0.000000000000000E+000  0.000000000000000E+000  0.000000000000000E+000        
  0.000000000000000E+000   1.00000000000000       0.000000000000000E+000        
  0.000000000000000E+000                                                        
   93.8810000000000       0.000000000000000E+000  0.000000000000000E+000        
  0.000000000000000E+000  0.000000000000000E+000  0.000000000000000E+000        
  0.000000000000000E+000  0.000000000000000E+000   1.00000000000000             
  0.000000000000000E+000                                                        
  6.959000000000000E-002  0.000000000000000E+000  0.000000000000000E+000        
  0.000000000000000E+000  0.000000000000000E+000  0.000000000000000E+000        
  0.000000000000000E+000  0.000000000000000E+000  0.000000000000000E+000        
   1.00000000000000                                                             
   10    8                                                                      
   63.4200000000000       6.044000000000000E-003  0.000000000000000E+000        
  0.000000000000000E+000  0.000000000000000E+000  0.000000000000000E+000        
  0.000000000000000E+000  0.000000000000000E+000  0.000000000000000E+000        
   14.6600000000000       4.179900000000000E-002  0.000000000000000E+000        
  0.000000000000000E+000  0.000000000000000E+000  0.000000000000000E+000        
  0.000000000000000E+000  0.000000000000000E+000  0.000000000000000E+000        
   4.45900000000000       0.161143000000000       0.000000000000000E+000        
  0.000000000000000E+000  0.000000000000000E+000  0.000000000000000E+000        
  0.000000000000000E+000  0.000000000000000E+000  0.000000000000000E+000        
   1.53100000000000       0.356731000000000        1.00000000000000             
  0.000000000000000E+000  0.000000000000000E+000  0.000000000000000E+000        
  0.000000000000000E+000  0.000000000000000E+000  0.000000000000000E+000        
  0.530200000000000       0.448309000000000       0.000000000000000E+000        
   1.00000000000000       0.000000000000000E+000  0.000000000000000E+000        
  0.000000000000000E+000  0.000000000000000E+000  0.000000000000000E+000        
  0.175000000000000       0.244940000000000       0.000000000000000E+000        
  0.000000000000000E+000   1.00000000000000       0.000000000000000E+000        
  0.000000000000000E+000  0.000000000000000E+000  0.000000000000000E+000        
   14.4750000000000       0.000000000000000E+000  0.000000000000000E+000        
  0.000000000000000E+000  0.000000000000000E+000   1.00000000000000             
  0.000000000000000E+000  0.000000000000000E+000  0.000000000000000E+000        
   42.7300000000000       0.000000000000000E+000  0.000000000000000E+000        
  0.000000000000000E+000  0.000000000000000E+000  0.000000000000000E+000        
   1.00000000000000       0.000000000000000E+000  0.000000000000000E+000        
   126.140000000000       0.000000000000000E+000  0.000000000000000E+000        
  0.000000000000000E+000  0.000000000000000E+000  0.000000000000000E+000        
  0.000000000000000E+000   1.00000000000000       0.000000000000000E+000        
  5.348000000000000E-002  0.000000000000000E+000  0.000000000000000E+000        
  0.000000000000000E+000  0.000000000000000E+000  0.000000000000000E+000        
  0.000000000000000E+000  0.000000000000000E+000   1.00000000000000             
    6    6                                                                      
   3.77500000000000        1.00000000000000       0.000000000000000E+000        
  0.000000000000000E+000  0.000000000000000E+000  0.000000000000000E+000        
  0.000000000000000E+000                                                        
   1.30000000000000       0.000000000000000E+000   1.00000000000000             
  0.000000000000000E+000  0.000000000000000E+000  0.000000000000000E+000        
  0.000000000000000E+000                                                        
  0.444000000000000       0.000000000000000E+000  0.000000000000000E+000        
   1.00000000000000       0.000000000000000E+000  0.000000000000000E+000        
  0.000000000000000E+000                                                        
   14.9270000000000       0.000000000000000E+000  0.000000000000000E+000        
  0.000000000000000E+000   1.00000000000000       0.000000000000000E+000        
  0.000000000000000E+000                                                        
   57.5440000000000       0.000000000000000E+000  0.000000000000000E+000        
  0.000000000000000E+000  0.000000000000000E+000   1.00000000000000             
  0.000000000000000E+000                                                        
  0.154000000000000       0.000000000000000E+000  0.000000000000000E+000        
  0.000000000000000E+000  0.000000000000000E+000  0.000000000000000E+000        
   1.00000000000000                                                             
    4    4                                                                      
   2.66600000000000        1.00000000000000       0.000000000000000E+000        
  0.000000000000000E+000  0.000000000000000E+000                                
  0.859000000000000       0.000000000000000E+000   1.00000000000000             
  0.000000000000000E+000  0.000000000000000E+000                                
   26.4830000000000       0.000000000000000E+000  0.000000000000000E+000        
   1.00000000000000       0.000000000000000E+000                                
  0.324000000000000       0.000000000000000E+000  0.000000000000000E+000        
  0.000000000000000E+000   1.00000000000000                                     
    2    2                                                                      
   1.84600000000000        1.00000000000000       0.000000000000000E+000        
  0.714000000000000       0.000000000000000E+000   1.00000000000000             
FINISH                                                                          
 
********************************************************************************
 ONE- AND TWO-ELECTRON INTEGRALS OVER SYMMETRY-ADAPTED AOS ARE CALCULATED.

  SPHERICAL HARMONICS ARE USED.
  
  INTEGRALS LESS THAN  0.10E-13 ARE NEGLECTED.

  NUCLEAR REPULSION ENERGY :   22.5131848438 A.U.
  @MOLECU-I, ONE ELECTRON INTEGRALS (CPU/WALL):        0.06/       0.06 SECONDS.
  @TWOEL-I,    4596335 INTEGRALS OF SYMMETRY TYPE  I I I I
  @TWOEL-I,   19726989 INTEGRALS OF SYMMETRY TYPE  I J I J
  @TWOEL-I,   10395776 INTEGRALS OF SYMMETRY TYPE  I I J J
  @TWOEL-I,   14595741 INTEGRALS OF SYMMETRY TYPE  I J K L
  @TWOEL-I, TOTAL NUMBER OF 2-E INTEGRALS   49314841.
  @MOLECU-I, TWO ELECTRON INTEGRALS (CPU/WALL):      147.71/      20.16 SECONDS.
 @CHECKOUT-I, Total execution time (CPU/WALL):      147.78/      20.24 seconds.

Running with 14 threads/proc

--executable xvmol finished with status     0 in       20.27 seconds (walltime).
 --invoking executable--
/nfs/workspaces/public/cfour_mpi/bin/xvmol2ja
 @GETMEM-I,  Allocated    3814 MB of main memory.
 @CHECKOUT-I, Total execution time (CPU/WALL):        0.25/       0.04 seconds.
--executable xvmol2ja finished with status     0 in        0.08 seconds (walltime).
 --invoking executable--
/nfs/workspaces/public/cfour_mpi/bin/xvscf
  There are  218 functions in the AO basis.

  There are 4 irreducible representations.

       Irrep        # of functions
         1                 86
         2                 52
         3                 52
         4                 28


  Parameters for SCF calculation: 
        SCF reference function:  RHF  
  Maximum number of iterations:  150
     Full symmetry point group: CXv 
     Computational point group: C2v 
        Initial density matrix: MOREAD                 
     SCF convergence tolerance: 10**(-10)
  DIIS convergence acceleration:  ON
          Latest start for DIIS:   8
                     DIIS order:   6

  Memory information:    2523578 words required.
  Fock matrices are constructed from AO integral file.
 @GETMEM-I,  Allocated      19 MB of main memory.
  Initialization and symmetry analysis required      0.002 seconds.

  @INITGES-I, Occupancies from core Hamiltonian:

          Alpha population by irrep:   5    1    1    0
           Beta population by irrep:   5    1    1    0


 total no. of electrons in initial guess :  0.000000000000000E+000
  --------------------------------------------------------------------
  Iteration         Total Energy            Largest Density Difference
  --------------------------------------------------------------------
       0            22.513184843784614              0.0000000000D+00
   current occupation vector 
     5  1  1  0
     5  1  1  0
       1           -91.791881649370879              0.1871593591D+02
   current occupation vector 
     5  1  1  0
     5  1  1  0
       2           -96.468993014755597              0.2293497678D+02
   current occupation vector 
     5  1  1  0
     5  1  1  0
       3          -103.358127232354718              0.2292417237D+02
   current occupation vector 
     5  1  1  0
     5  1  1  0
       4          -100.409158563722130              0.7592240705D+01
   current occupation vector 
     5  1  1  0
     5  1  1  0
       5          -103.462944274784718              0.7398222266D+01
   current occupation vector 
     5  1  1  0
     5  1  1  0
       6          -100.516441959210823              0.5809798262D+01
   current occupation vector 
     5  1  1  0
     5  1  1  0
       7          -103.254577440394996              0.5595457798D+01
   current occupation vector 
     5  1  1  0
     5  1  1  0
       8          -100.265582410082956              0.5580351089D+01
   current occupation vector 
     5  1  1  0
     5  1  1  0
       9          -110.829571071484281              0.4184381035D+01
   current occupation vector 
     5  1  1  0
     5  1  1  0
      10          -112.305301995653167              0.9126534973D+00
   current occupation vector 
     5  1  1  0
     5  1  1  0
      11          -112.774880786815260              0.4956256556D+00
   current occupation vector 
     5  1  1  0
     5  1  1  0
      12          -112.788780600549160              0.1043264431D+00
   current occupation vector 
     5  1  1  0
     5  1  1  0
      13          -112.789197502911577              0.2304953364D-01
   current occupation vector 
     5  1  1  0
     5  1  1  0
      14          -112.789277880574303              0.1360876789D-01
   current occupation vector 
     5  1  1  0
     5  1  1  0
      15          -112.789281294777879              0.3687057293D-02
   current occupation vector 
     5  1  1  0
     5  1  1  0
      16          -112.789281332749283              0.3280663586D-03
   current occupation vector 
     5  1  1  0
     5  1  1  0
      17          -112.789281333693765              0.3630548989D-04
   current occupation vector 
     5  1  1  0
     5  1  1  0
      18          -112.789281333721675              0.6213563494D-05
   current occupation vector 
     5  1  1  0
     5  1  1  0
      19          -112.789281333722926              0.1184992456D-05
   current occupation vector 
     5  1  1  0
     5  1  1  0
      20          -112.789281333720766              0.2063458076D-06
   current occupation vector 
     5  1  1  0
     5  1  1  0
      21          -112.789281333723721              0.3350354505D-07
   current occupation vector 
     5  1  1  0
     5  1  1  0
      22          -112.789281333722471              0.8379994254D-08
   current occupation vector 
     5  1  1  0
     5  1  1  0
      23          -112.789281333723011              0.4724486136D-08
   current occupation vector 
     5  1  1  0
     5  1  1  0
      24          -112.789281333722784              0.1784857817D-09
   current occupation vector 
     5  1  1  0
     5  1  1  0
      25          -112.789281333720766              0.2228901508D-09
   current occupation vector 
     5  1  1  0
     5  1  1  0
      26          -112.789281333722272              0.2367421814D-09
   current occupation vector 
     5  1  1  0
     5  1  1  0

  SCF has converged.

 Density matrix saved to file den.dat
 total electron number:   14.0000000000002     
     E(SCF)=      -112.789281333722954              0.4809422305D-10

  Eigenvector printing suppressed.

 @PUTMOS-I, Writing converged MOs to NEWMOS. 
 @PUTMOS-I, Symmetry   1 Full Blocks 21 Partial Blocksize   2
 @PUTMOS-I, Symmetry   2 Full Blocks 13 Partial Blocksize   0
 @PUTMOS-I, Symmetry   3 Full Blocks 13 Partial Blocksize   0
 @PUTMOS-I, Symmetry   4 Full Blocks  7 Partial Blocksize   0
 @PUTFOCK-I, Writing converged Fock matrix to NEWFOCK. 
 @PUTFOCK-I, Symmetry   1 Full Blocks 21 Partial Blocksize   2
 @PUTFOCK-I, Symmetry   2 Full Blocks 13 Partial Blocksize   0
 @PUTFOCK-I, Symmetry   3 Full Blocks 13 Partial Blocksize   0
 @PUTFOCK-I, Symmetry   4 Full Blocks  7 Partial Blocksize   0


 
  ORBITAL EIGENVALUES (ALPHA)  (1H = 27.2113834 eV)

       MO #        E(hartree)               E(eV)           FULLSYM    COMPSYM
       ----   --------------------   --------------------   -------   ---------
    1     1         -20.6652459551        -562.3299307384     SG+        A1 (1)
    2     2         -11.3603695875        -309.1313724120     SG+        A1 (1)
    3     3          -1.5217416150         -41.4086945220     SG+        A1 (1)
    4     4          -0.8046428223         -21.8954443387     SG+        A1 (1)
    5    87          -0.6403540778         -17.4249203234      PI        B1 (2)
    6   139          -0.6403540778         -17.4249203234      PI        B2 (3)
    7     5          -0.5549551700         -15.1010978994     SG+        A1 (1)
  +++++++++++++++++++++++++++++++++++++++++++++++++++++++++++++++++++++++++++++
    8     6           0.0600931577           1.6352179548     SG+        A1 (1)
    9   140           0.0627927496           1.7086775830      PI        B2 (3)
   10    88           0.0627927496           1.7086775830      PI        B1 (2)
   11     7           0.0746838959           2.0322521243     SG+        A1 (1)
   12   141           0.1411523428           3.8409505180      PI        B2 (3)
   13    89           0.1411523428           3.8409505180      PI        B1 (2)
   14     8           0.1563176068           4.2536183317     SG+        A1 (1)
   15   142           0.1668121459           4.5391892566      PI        B2 (3)
   16    90           0.1668121459           4.5391892566      PI        B1 (2)
   17   191           0.2278948688           6.2013346504      DE        A2 (4)
   18     9           0.2278948688           6.2013346504      DE        A1 (1)
   19    10           0.2280255450           6.2048905305     SG+        A1 (1)
   20    11           0.3012594845           8.1976873351     SG+        A1 (1)
   21   143           0.3207429036           8.7278581235      PI        B2 (3)
   22    91           0.3207429036           8.7278581235      PI        B1 (2)
   23    12           0.3917567814          10.6602439787     SG+        A1 (1)
   24   144           0.3958132841          10.7706270282      PI        B2 (3)
   25    92           0.3958132841          10.7706270282      PI        B1 (2)
   26    13           0.5083729311          13.8335307381     SG+        A1 (1)
   27   192           0.5345932848          14.5470228348      DE        A2 (4)
   28    14           0.5345932848          14.5470228348      DE        A1 (1)
   29   145           0.6231224844          16.9560248291      PI        B2 (3)
   30    93           0.6231224844          16.9560248291      PI        B1 (2)
   31    15           0.6451411714          17.5551837611     SG+        A1 (1)
   32   146           0.7487797905          20.3753339616      PH        B2 (3)
   33    94           0.7487797905          20.3753339616      PH        B1 (2)
   34   193           0.7686021243          20.9147270870      DE        A2 (4)
   35    16           0.7686021243          20.9147270870      DE        A1 (1)
   36    17           0.7799377232          21.2231844136     SG+        A1 (1)
   37   147           0.8234492463          22.4071931516      PI        B2 (3)
   38    95           0.8234492463          22.4071931516      PI        B1 (2)
   39    18           0.8723584052          23.7380790252     SG+        A1 (1)
   40   148           0.8810564188          23.9747640097      PI        B2 (3)
   41    96           0.8810564188          23.9747640097      PI        B1 (2)
   42   194           0.8911365428          24.2490581286      DE        A2 (4)
   43    19           0.8911365428          24.2490581286      DE        A1 (1)
   44    20           0.9105566827          24.7775070000     SG+        A1 (1)
   45   149           1.0769071845          29.3041342823      PI        B2 (3)
   46    97           1.0769071845          29.3041342823      PI        B1 (2)
   47    21           1.1958322647          32.5402502377     SG+        A1 (1)
   48    98           1.4475533376          39.3899288615      PH        B1 (2)
   49   150           1.4475533376          39.3899288615      PH        B2 (3)
   50    22           1.4742919738          40.1175241416     SG+        A1 (1)
   51   195           1.5176128211          41.2963443274      DE        A2 (4)
   52    23           1.5176128211          41.2963443274      DE        A1 (1)
   53    99           1.5537240363          42.2789804502      PI        B1 (2)
   54   151           1.5537240363          42.2789804502      PI        B2 (3)
   55    24           1.6672797508          45.3689885340     SG+        A1 (1)
   56   196           1.7690345498          48.1378773829      DE        A2 (4)
   57    25           1.7690345498          48.1378773829      DE        A1 (1)
   58    26           1.7707273570          48.1839410087     SG+        A1 (1)
   59   100           1.8056618536          49.1345569888      PI        B1 (2)
   60   152           1.8056618536          49.1345569888      PI        B2 (3)
   61   153           1.9685926277          53.5681287512      PI        B2 (3)
   62   101           1.9685926277          53.5681287513      PI        B1 (2)
   63   197           2.1056530527          57.2977325246      PI        A2 (4)
   64    27           2.1056530527          57.2977325246      PI        A1 (1)
   65    28           2.1354189691          58.1077042891     SG+        A1 (1)
   66   198           2.1960118624          59.7565207386      DE        A2 (4)
   67    29           2.1960118624          59.7565207386      DE        A1 (1)
   68   102           2.2519113928          61.2776242913      PH        B1 (2)
   69   154           2.2519113928          61.2776242913      PH        B2 (3)
   70    30           2.3157689186          63.0152759111     SG+        A1 (1)
   71   155           2.3250419199          63.2676071033      PI        B2 (3)
   72   103           2.3250419199          63.2676071033      PI        B1 (2)
   73   156           2.3632298265          64.3067528700      PH        B2 (3)
   74   104           2.3632298265          64.3067528700      PH        B1 (2)
   75   199           2.3644806998          64.3407908653      DE        A2 (4)
   76    31           2.3644806998          64.3407908653      DE        A1 (1)
   77    32           2.4867444551          67.6677567862     SG+        A1 (1)
   78   105           2.5980003208          70.6951828028      PI        B1 (2)
   79   157           2.5980003208          70.6951828028      PI        B2 (3)
   80   158           2.8323483199          77.0721160543      PI        B2 (3)
   81   106           2.8323483199          77.0721160543      PI        B1 (2)
   82    33           2.9426200400          80.0727621085     SG+        A1 (1)
   83   200           3.0094085421          81.8901696476      DE        A2 (4)
   84    34           3.0094085421          81.8901696476      DE        A1 (1)
   85    35           3.4750879306          94.5619500273     SG+        A1 (1)
   86   201           3.7237151576         101.3274408255      PI        A2 (4)
   87    36           3.7237151576         101.3274408255      PI        A1 (1)
   88   159           3.7508826792         102.0667066718      PI        B2 (3)
   89   107           3.7508826792         102.0667066718      PI        B1 (2)
   90    37           3.9472790040         107.4109223637     SG+        A1 (1)
   91   108           4.0827080595         111.0961343173      PH        B1 (2)
   92   160           4.0827080595         111.0961343173      PH        B2 (3)
   93   202           4.1765203319         113.6488960280      DE        A2 (4)
   94    38           4.1765203319         113.6488960280      DE        A1 (1)
   95   161           4.2105677693         114.5753739029      PI        B2 (3)
   96   109           4.2105677693         114.5753739029      PI        B1 (2)
   97    39           4.2723139563         116.2555730712     SG+        A1 (1)
   98   162           4.2841528891         116.5777268090      PH        B2 (3)
   99   110           4.2841528891         116.5777268090      PH        B1 (2)
  100    40           4.3818852948         119.2371607724      DE        A1 (1)
  101   203           4.3818852948         119.2371607724      DE        A2 (4)
  102    41           4.5353978590         123.4144500135     SG+        A1 (1)
  103   163           4.7638251772         129.6302733464      PI        B2 (3)
  104   111           4.7638251772         129.6302733464      PI        B1 (2)
  105    42           5.0138249176         136.4331121327     SG+        A1 (1)
  106   164           5.1306228187         139.6113446001      PI        B2 (3)
  107   112           5.1306228187         139.6113446002      PI        B1 (2)
  108    43           5.1524140977         140.2043154469      DE        A1 (1)
  109   204           5.1524140977         140.2043154470      DE        A2 (4)
  110   113           5.8165339539         158.2759354779      PI        B1 (2)
  111   165           5.8165339539         158.2759354779      PI        B2 (3)
  112    44           5.8538601801         159.2916337308     SG+        A1 (1)
  113    45           5.9010627764         160.5760816764      PI        A1 (1)
  114   205           5.9010627764         160.5760816764      PI        A2 (4)
  115   166           6.1365249427         166.9833329593      PH        B2 (3)
  116   114           6.1365249427         166.9833329593      PH        B1 (2)
  117    46           6.2326323228         169.5985477256     SG+        A1 (1)
  118   206           6.3058479550         171.5908463646      DE        A2 (4)
  119    47           6.3058479550         171.5908463646      DE        A1 (1)
  120   115           6.3285337662         172.2081586719      PI        B1 (2)
  121   167           6.3285337662         172.2081586719      PI        B2 (3)
  122   116           6.4435781461         175.3386754012      PH        B1 (2)
  123   168           6.4435781461         175.3386754013      PH        B2 (3)
  124   207           6.5907477216         179.3433631448      DE        A2 (4)
  125    48           6.5907477216         179.3433631449      DE        A1 (1)
  126    49           7.0560569448         192.0050708159     SG+        A1 (1)
  127    50           7.3513529907         200.0404847379      DE        A1 (1)
  128   208           7.3513529907         200.0404847380      DE        A2 (4)
  129   169           7.4941436508         203.9260161361      PI        B2 (3)
  130   117           7.4941436508         203.9260161361      PI        B1 (2)
  131    51           7.7957714273         212.1337252073     SG+        A1 (1)
  132    52           8.2568982988         224.6816253040     SG+        A1 (1)
  133   118           8.4904974011         231.0381800386      PI        B1 (2)
  134   170           8.4904974011         231.0381800387      PI        B2 (3)
  135   119          10.1227094111         275.4529268328      PI        B1 (2)
  136   171          10.1227094111         275.4529268329      PI        B2 (3)
  137    53          10.5212262156         286.2971203907     SG+        A1 (1)
  138   209          10.6018701008         288.4915520706      PI        A2 (4)
  139    54          10.6018701008         288.4915520706      PI        A1 (1)
  140   120          10.8826099063         296.1308705542      PH        B1 (2)
  141   172          10.8826099063         296.1308705542      PH        B2 (3)
  142   210          11.1356271341         303.0158193444      DE        A2 (4)
  143    55          11.1356271341         303.0158193444      DE        A1 (1)
  144    56          11.1576857946         303.6160660148     SG+        A1 (1)
  145   121          11.3739341170         309.5004820234      PI        B1 (2)
  146   173          11.3739341170         309.5004820234      PI        B2 (3)
  147    57          11.6241347070         316.3087862047     SG+        A1 (1)
  148   174          11.8549528683         322.5896676877      PH        B2 (3)
  149   122          11.8549528683         322.5896676877      PH        B1 (2)
  150   211          12.2931595953         334.5138789463      DE        A2 (4)
  151    58          12.2931595954         334.5138789465      DE        A1 (1)
  152   123          12.6475807578         344.1581690829      PI        B1 (2)
  153   175          12.6475807578         344.1581690829      PI        B2 (3)
  154    59          12.8787613762         350.4489135247      DE        A1 (1)
  155   212          12.8787613762         350.4489135247      DE        A2 (4)
  156    60          13.3187360908         362.4212341711     SG+        A1 (1)
  157   176          14.1879210855         386.0729603071      PI        B2 (3)
  158   124          14.1879210855         386.0729603072      PI        B1 (2)
  159    61          15.6009289950         424.5228602785     SG+        A1 (1)
  160    62          18.0448253686         491.0246614907     SG+        A1 (1)
  161   125          19.4160453536         528.3374542289      PI        B1 (2)
  162   177          19.4160453536         528.3374542290      PI        B2 (3)
  163    63          20.6807692434         562.7523408899     SG+        A1 (1)
  164   213          26.5391999775         722.1683457167      DE        A2 (4)
  165    64          26.5391999775         722.1683457168      DE        A1 (1)
  166   178          27.0291796018         735.5013691327      PI        B2 (3)
  167   126          27.0291796018         735.5013691327      PI        B1 (2)
  168    65          28.2467882093         768.6341837812     SG+        A1 (1)
  169   179          33.7976506855         919.6808308218      PI        B2 (3)
  170   127          33.7976506855         919.6808308223      PI        B1 (2)
  171    66          35.0154201919         952.8180237529     SG+        A1 (1)
  172    67          36.8474128914        1002.6690794861     SG+        A1 (1)
  173   214          47.1236018220        1282.2983963668      DE        A2 (4)
  174    68          47.1236018220        1282.2983963669      DE        A1 (1)
  175   128          47.7278534669        1298.7409195466      PI        B1 (2)
  176   180          47.7278534669        1298.7409195466      PI        B2 (3)
  177    69          48.5922247078        1322.2616567839     SG+        A1 (1)
  178    70          64.2381064410        1748.0077432564     SG+        A1 (1)
  179   129          66.8592496282        1819.3326754688      PI        B1 (2)
  180   181          66.8592496282        1819.3326754689      PI        B2 (3)
  181    71          67.8349868460        1845.8838350006     SG+        A1 (1)
  182   130          98.6770221240        2685.1382817856      PH        B1 (2)
  183   182          98.6770221240        2685.1382817856      PH        B2 (3)
  184   215          98.6999523176        2685.7622440771      DE        A2 (4)
  185    72          98.6999523176        2685.7622440771      DE        A1 (1)
  186   131          98.7691850399        2687.6461622259      PI        B1 (2)
  187   183          98.7691850399        2687.6461622259      PI        B2 (3)
  188    73          98.7804757115        2687.9533970198     SG+        A1 (1)
  189   132         103.2842917735        2810.5084626470      PH        B1 (2)
  190   184         103.2842917735        2810.5084626470      PH        B2 (3)
  191   216         103.3352945221        2811.8963179916      DE        A2 (4)
  192    74         103.3352945222        2811.8963179959      DE        A1 (1)
  193   133         103.3629583359        2812.6490886360      PI        B1 (2)
  194   185         103.3629583359        2812.6490886360      PI        B2 (3)
  195    75         103.4260969394        2814.3671773840     SG+        A1 (1)
  196    76         115.1913646977        3134.5163891583      DE        A1 (1)
  197   217         115.1913646977        3134.5163891583      DE        A2 (4)
  198   186         115.4304806440        3141.0230648505      PI        B2 (3)
  199   134         115.4304806440        3141.0230648505      PI        B1 (2)
  200    77         116.0483726626        3157.8367614687     SG+        A1 (1)
  201   187         117.0461031726        3184.9863889054      PI        B2 (3)
  202   135         117.0461031726        3184.9863889060      PI        B1 (2)
  203    78         118.0848925589        3213.2532851669     SG+        A1 (1)
  204    79         122.9347951045        3345.2258427882     SG+        A1 (1)
  205   218         198.5801810017        5403.6414408787      DE        A2 (4)
  206    80         198.5801810017        5403.6414408788      DE        A1 (1)
  207   136         198.9077018666        5412.5537367061      PI        B1 (2)
  208   188         198.9077018667        5412.5537367066      PI        B2 (3)
  209    81         199.3409480496        5424.3429646960     SG+        A1 (1)
  210    82         216.7155425360        5897.1297166861     SG+        A1 (1)
  211   189         225.2709252263        6129.9335152062      PI        B2 (3)
  212   137         225.2709252263        6129.9335152062      PI        B1 (2)
  213    83         226.0695994522        6151.6665457785     SG+        A1 (1)
  214   190         395.5041241633       10762.2143588895      PI        B2 (3)
  215   138         395.5041241634       10762.2143588901      PI        B1 (2)
  216    84         396.3604089266       10785.5150518836     SG+        A1 (1)
  217    85         509.4652053290       13863.2530311665     SG+        A1 (1)
  218    86         895.5470046467       24369.0728961643     SG+        A1 (1)


  VSCF finished.

 @CHECKOUT-I, Total execution time (CPU/WALL):       44.76/       7.77 seconds.
--executable xvscf finished with status     0 in        7.84 seconds (walltime).
 --invoking executable--
/nfs/workspaces/public/cfour_mpi/bin/xvtran
 @GETMEM-I,  Allocated    3814 MB of main memory.
  Full RHF integral transformation
  Transformation of IIII integrals :
  1 pass through the AO integral file was required.
     4596335 AO integrals were read.
     8833843 MO integrals were written to HF2.
  Transformation of IIJJ integrals :
  1 pass through the AO integral file was required.
    10395776 AO integrals were read.
    14648968 MO integrals were written to HF2.
  Transformation of IJIJ integrals :
  1 pass through the AO integral file was required.
    19726989 AO integrals were read.
    27619214 MO integrals were written to HF2.
  Transformation of IJKL integrals :
  1 pass through the AO integral file was required.
    14595741 AO integrals were read.
    18645102 MO integrals were written to HF2.
  Summary of active molecular orbitals: 
------------------------------------------------------------------------
 
  Index      Eigenvalue    Symmetry    Index      Eigenvalue    Symmetry
------------------------------------------------------------------------
     1       -20.6652460        1       110         4.2105678        2
     2       -11.3603696        1       111         4.2841529        2
     3        -1.5217416        1       112         4.7638252        2
     4        -0.8046428        1       113         5.1306228        2
     5        -0.5549552        1       114         5.8165340        2
     6        -0.6403541        2       115         6.1365249        2
     7        -0.6403541        3       116         6.3285338        2
     8         0.0600932        1       117         6.4435781        2
     9         0.0746839        1       118         7.4941437        2
    10         0.1563176        1       119         8.4904974        2
    11         0.2278949        1       120        10.1227094        2
    12         0.2280255        1       121        10.8826099        2
    13         0.3012595        1       122        11.3739341        2
    14         0.3917568        1       123        11.8549529        2
    15         0.5083729        1       124        12.6475808        2
    16         0.5345933        1       125        14.1879211        2
    17         0.6451412        1       126        19.4160454        2
    18         0.7686021        1       127        27.0291796        2
    19         0.7799377        1       128        33.7976507        2
    20         0.8723584        1       129        47.7278535        2
    21         0.8911365        1       130        66.8592496        2
    22         0.9105567        1       131        98.6770221        2
    23         1.1958323        1       132        98.7691850        2
    24         1.4742920        1       133       103.2842918        2
    25         1.5176128        1       134       103.3629583        2
    26         1.6672798        1       135       115.4304806        2
    27         1.7690345        1       136       117.0461032        2
    28         1.7707274        1       137       198.9077019        2
    29         2.1056531        1       138       225.2709252        2
    30         2.1354190        1       139       395.5041242        2
    31         2.1960119        1       140         0.0627927        3
    32         2.3157689        1       141         0.1411523        3
    33         2.3644807        1       142         0.1668121        3
    34         2.4867445        1       143         0.3207429        3
    35         2.9426200        1       144         0.3958133        3
    36         3.0094085        1       145         0.6231225        3
    37         3.4750879        1       146         0.7487798        3
    38         3.7237152        1       147         0.8234492        3
    39         3.9472790        1       148         0.8810564        3
    40         4.1765203        1       149         1.0769072        3
    41         4.2723140        1       150         1.4475533        3
    42         4.3818853        1       151         1.5537240        3
    43         4.5353979        1       152         1.8056619        3
    44         5.0138249        1       153         1.9685926        3
    45         5.1524141        1       154         2.2519114        3
    46         5.8538602        1       155         2.3250419        3
    47         5.9010628        1       156         2.3632298        3
    48         6.2326323        1       157         2.5980003        3
    49         6.3058480        1       158         2.8323483        3
    50         6.5907477        1       159         3.7508827        3
    51         7.0560569        1       160         4.0827081        3
    52         7.3513530        1       161         4.2105678        3
    53         7.7957714        1       162         4.2841529        3
    54         8.2568983        1       163         4.7638252        3
    55        10.5212262        1       164         5.1306228        3
    56        10.6018701        1       165         5.8165340        3
    57        11.1356271        1       166         6.1365249        3
    58        11.1576858        1       167         6.3285338        3
    59        11.6241347        1       168         6.4435781        3
    60        12.2931596        1       169         7.4941437        3
    61        12.8787614        1       170         8.4904974        3
    62        13.3187361        1       171        10.1227094        3
    63        15.6009290        1       172        10.8826099        3
    64        18.0448254        1       173        11.3739341        3
    65        20.6807692        1       174        11.8549529        3
    66        26.5392000        1       175        12.6475808        3
    67        28.2467882        1       176        14.1879211        3
    68        35.0154202        1       177        19.4160454        3
    69        36.8474129        1       178        27.0291796        3
    70        47.1236018        1       179        33.7976507        3
    71        48.5922247        1       180        47.7278535        3
    72        64.2381064        1       181        66.8592496        3
    73        67.8349868        1       182        98.6770221        3
    74        98.6999523        1       183        98.7691850        3
    75        98.7804757        1       184       103.2842918        3
    76       103.3352945        1       185       103.3629583        3
    77       103.4260969        1       186       115.4304806        3
    78       115.1913647        1       187       117.0461032        3
    79       116.0483727        1       188       198.9077019        3
    80       118.0848926        1       189       225.2709252        3
    81       122.9347951        1       190       395.5041242        3
    82       198.5801810        1       191         0.2278949        4
    83       199.3409480        1       192         0.5345933        4
    84       216.7155425        1       193         0.7686021        4
    85       226.0695995        1       194         0.8911365        4
    86       396.3604089        1       195         1.5176128        4
    87       509.4652053        1       196         1.7690345        4
    88       895.5470046        1       197         2.1056531        4
    89         0.0627927        2       198         2.1960119        4
    90         0.1411523        2       199         2.3644807        4
    91         0.1668121        2       200         3.0094085        4
    92         0.3207429        2       201         3.7237152        4
    93         0.3958133        2       202         4.1765203        4
    94         0.6231225        2       203         4.3818853        4
    95         0.7487798        2       204         5.1524141        4
    96         0.8234492        2       205         5.9010628        4
    97         0.8810564        2       206         6.3058480        4
    98         1.0769072        2       207         6.5907477        4
    99         1.4475533        2       208         7.3513530        4
   100         1.5537240        2       209        10.6018701        4
   101         1.8056619        2       210        11.1356271        4
   102         1.9685926        2       211        12.2931596        4
   103         2.2519114        2       212        12.8787614        4
   104         2.3250419        2       213        26.5392000        4
   105         2.3632298        2       214        47.1236018        4
   106         2.5980003        2       215        98.6999523        4
   107         2.8323483        2       216       103.3352945        4
   108         3.7508827        2       217       115.1913647        4
   109         4.0827081        2       218       198.5801810        4
------------------------------------------------------------------------
  -20.6652459550570       -11.3603695875311       -1.52174161501732     
 -0.804642822339780      -0.554955169952528      -0.640354077821741     
 -0.640354077821735       6.009315773403034E-002  7.468389586738804E-002
  0.156317606833185       0.227894868822514       0.228025545019948     
  0.301259484482138       0.391756781419130       0.508372931090338     
  0.534593284764172       0.645141171365126       0.768602124323377     
  0.779937723181489       0.872358405167693       0.891136542828046     
  0.910556682687522        1.19583226473178        1.47429197376209     
   1.51761282108850        1.66727975079828        1.76903454981612     
   1.77072735701803        2.10565305270556        2.13541896914850     
   2.19601186239572        2.31576891864497        2.36448069984235     
   2.48674445512501        2.94262003998190        3.00940854214790     
   3.47508793056580        3.72371515758743        3.94727900396681     
   4.17652033185521        4.27231395634217        4.38188529482785     
   4.53539785902528        5.01382491757911        5.15241409765794     
   5.85386018010508        5.90106277641141        6.23263232275068     
   6.30584795496258        6.59074772159027        7.05605694475435     
   7.35135299067237        7.79577142730900        8.25689829881904     
   10.5212262155965        10.6018701008255        11.1356271340627     
   11.1576857946445        11.6241347069740        12.2931595953533     
   12.8787613761916        13.3187360908327        15.6009289949766     
   18.0448253685892        20.6807692434314        26.5391999774916     
   28.2467882092749        35.0154201918617        36.8474128914040     
   47.1236018219811        48.5922247078383        64.2381064410125     
   67.8349868460060        98.6999523176431        98.7804757114905     
   103.335294522214        103.426096939415        115.191364697699     
   116.048372662624        118.084892558857        122.934795104472     
   198.580181001705        199.340948049559        216.715542536000     
   226.069599452209        396.360408926640        509.465205328977     
   895.547004646749       6.279274955783999E-002  0.141152342810006     
  0.166812145853461       0.320742903630843       0.395813284090522     
  0.623122484435051       0.748779790504689       0.823449246303841     
  0.881056418826468        1.07690718445040        1.44755333760567     
   1.55372403632447        1.80566185358970        1.96859262771816     
   2.25191139276189        2.32504191989449        2.36322982645449     
   2.59800032080519        2.83234831986924        3.75088267918914     
   4.08270805949745        4.21056776932807        4.28415288908215     
   4.76382517716383        5.13062281868970        5.81653395386917     
   6.13652494269446        6.32853376619802        6.44357814609492     
   7.49414365078152        8.49049740112202        10.1227094111226     
   10.8826099063448        11.3739341169751        11.8549528682815     
[...]
 Convergence information after     9 iterations: 
 Largest element of residual vector :  0.87701625E-05.
 Largest element of DIIS residual   :  0.47374349E-05.
 Convergence information after    10 iterations: 
 Largest element of residual vector :  0.50310860E-05.
 Largest element of DIIS residual   :  0.33742019E-05.
 Convergence information after    11 iterations: 
 Largest element of residual vector :  0.19320923E-05.
 Largest element of DIIS residual   :  0.73308056E-06.
 Convergence information after    12 iterations: 
 Largest element of residual vector :  0.78883071E-06.
 Largest element of DIIS residual   :  0.39966117E-06.
 Convergence information after    13 iterations: 
 Largest element of residual vector :  0.30144694E-06.
 Largest element of DIIS residual   :  0.21555880E-06.
 Convergence information after    14 iterations: 
 Largest element of residual vector :  0.16650000E-06.
 Largest element of DIIS residual   :  0.88681372E-07.
 Perturbed amplitude equations converged in    14 iterations.
  Dominant contributions to perturbed wavefunction:
    7    7  141   28   0.2129505625 ABAB
    7    7   28  141   0.2129505625 ABAB
    7    7  141   37   0.2005573740 ABAB
    7    7   37  141   0.2005573740 ABAB
    7    7  141   55   0.1776944126 ABAB
    7    7   55  141   0.1776944126 ABAB
    7    7  142   28   0.1621572401 ABAB
    7    7   28  142   0.1621572401 ABAB
    7    7  142   37   0.1506249735 ABAB
    7    7   37  142   0.1506249735 ABAB
    5    5  141   44   0.1451098603 ABAB
    5    5   44  141   0.1451098603 ABAB
    7    7  141   53  -0.1413181994 ABAB
    7    7   53  141  -0.1413181994 ABAB
    7    6   28   90   0.1400674369 ABAB
    6    7   90   28   0.1400674369 ABAB
    7    7  141   44   0.1384966033 ABAB
    7    7   44  141   0.1384966033 ABAB
    7    7  141   63   0.1351465219 ABAB
    7    7   63  141   0.1351465219 ABAB
  norm of converged amps    2.45104142993648     
 Starting iterative solution of the perturbed Lambda equations.
 The DIIS procedure is used to accelerate convergence.
 Convergence criterion is 10**(-7).
 Maximum number of iterations is 100.
 Convergence information after     1 iterations: 
 Largest element of residual vector : -0.67981741E-01.
 Largest element of DIIS residual   : -0.67981741E-01.
 Convergence information after     2 iterations: 
 Largest element of residual vector :  0.75569814E-02.
 Largest element of DIIS residual   :  0.51424690E-02.
 Convergence information after     3 iterations: 
 Largest element of residual vector : -0.43717992E-02.
 Largest element of DIIS residual   : -0.37962374E-02.
 Convergence information after     4 iterations: 
 Largest element of residual vector : -0.27019408E-02.
 Largest element of DIIS residual   : -0.21345956E-02.
 Convergence information after     5 iterations: 
 Largest element of residual vector : -0.15778473E-02.
 Largest element of DIIS residual   : -0.73128370E-03.
 Convergence information after     6 iterations: 
 Largest element of residual vector : -0.51226955E-03.
 Largest element of DIIS residual   :  0.12063367E-03.
 Convergence information after     7 iterations: 
 Largest element of residual vector : -0.98593880E-04.
 Largest element of DIIS residual   : -0.45391885E-04.
 Convergence information after     8 iterations: 
 Largest element of residual vector : -0.20098359E-04.
 Largest element of DIIS residual   :  0.19264967E-04.
 Convergence information after     9 iterations: 
 Largest element of residual vector :  0.72140748E-05.
 Largest element of DIIS residual   : -0.40020514E-05.
 Convergence information after    10 iterations: 
 Largest element of residual vector :  0.40694712E-05.
 Largest element of DIIS residual   :  0.28776565E-05.
 Convergence information after    11 iterations: 
 Largest element of residual vector :  0.15265906E-05.
 Largest element of DIIS residual   :  0.68045964E-06.
 Convergence information after    12 iterations: 
 Largest element of residual vector :  0.70536629E-06.
 Largest element of DIIS residual   :  0.47033007E-06.
 Convergence information after    13 iterations: 
 Largest element of residual vector :  0.34772425E-06.
 Largest element of DIIS residual   :  0.27208452E-06.
 Convergence information after    14 iterations: 
 Largest element of residual vector :  0.20751088E-06.
 Largest element of DIIS residual   :  0.10705938E-06.
 Convergence information after    15 iterations: 
 Largest element of residual vector :  0.74627340E-07.
 Largest element of DIIS residual   :  0.34034572E-07.
 Perturbed Lambda equations converged in    15 iterations.
  Dominant contributions to perturbed wavefunction:
    7    7  141   28   0.2006862497 ABAB
    7    7   28  141   0.2006862497 ABAB
    7    7  141   37   0.1900024618 ABAB
    7    7   37  141   0.1900024618 ABAB
    7    7  141   55   0.1660770099 ABAB
    7    7   55  141   0.1660770099 ABAB
    7    7  142   28   0.1545348666 ABAB
    7    7   28  142   0.1545348666 ABAB
    7    7  142   37   0.1441595766 ABAB
    7    7   37  142   0.1441595766 ABAB
    5    5  141   44   0.1392259447 ABAB
    5    5   44  141   0.1392259447 ABAB
    7    7  141   53  -0.1329526492 ABAB
    7    7   53  141  -0.1329526492 ABAB
    7    6   28   90   0.1301158429 ABAB
    6    7   90   28   0.1301158429 ABAB
    7    7  141   44   0.1280491401 ABAB
    7    7   44  141   0.1280491401 ABAB
    7    7  141   63   0.1278523329 ABAB
    7    7   63  141   0.1278523329 ABAB
        The DBOC first-order density matrix is being calculated 
             (Symmetry block 3, perturbation   2)
 term   7.04387975349184     
 final tnorm  0.887456373983013     
  norm contr. I: |<0|L dT/dx|0>|^2   0.000000000000000E+000
  norm contr. II: <0|[nabla(1+L)e-T][nabla e^T]|0>   7.04387975349184     
  total norm contribution   7.04387975349184     
 oo  1.060459525265257E-002
 vv  -46.9940844672220     
 vo  3.757653723453973E-002
  Correlated perturbed 1-el contribution to DBOC  -46.9459033347348       cm**-1
  SUM_I |dc_I/dx|^2 contribution to DBOC   23.5645866025536       cm**-1
 
 
  The total diagonal Born-Oppenheimer correction (DBOC) is:      0.0038713630 a.u.
  The total diagonal Born-Oppenheimer correction (DBOC) is:        849.665961 cm-1
 
 Total CC energy including DBOC  -113.281900474963     
 First-order density matrix is being calculated  (Symmetry block 3, perturbation   2)
 Calculation of the contributions of <pq||rs> to dI(i,j)/dx required   1.4 seconds.
 Calculation of the contributions of <pq||rs> to dI(a,b)/dx required  12.9 seconds.
 Calculation of the contributions of <pq||rs> to dI(i,a)/dx required   8.7 seconds.
 First-order Z-vector equations are solved for 1 perturbation.
 Convergence reached after  18 iterations.
        U*G(pq,rs) contribution is being calculated
             (Symmetry block 3, perturbation   2)

 CCSD contribution to force constants 

        0.0000000000        0.0000000000        0.0000000000
        0.0000000000        0.0000000000        0.0000000000
        0.0000000000        0.0000000000        0.0000000000
        0.0000000000        0.0000000000        0.0000000000
        0.0000000000        0.0000000000        0.0000000000
        0.0000000000        0.0000000000        0.0000000000
        0.0000000000        0.0000000000        0.0000000000
        0.0000000000        0.0000000000        0.0000000000
        0.0000000000        0.0000000000        0.0000000000
        0.0000000000        0.0000000000        0.0000000000
        0.0000000000        0.0000000000        0.0000000000
        0.0000000000       -1.9838401726        1.9838401726

 CCSD contribution to dipole derivatives 

        0.0000000000        0.0000000000        0.0000000000
        0.0000000000        0.0000000000        0.0000000000
        0.0000000000        0.0000000000        0.0000000000
        0.0000000000        0.0000000000       -0.0444583091
        0.0000000000        0.0000000000        0.0000000000
        0.0000000000        0.0000000000        0.0000000000
 @CHECKOUT-I, Total execution time (CPU/WALL):      973.19/     223.69 seconds.
--executable xsdcc finished with status     0 in      223.74 seconds (walltime).
 --invoking executable--
/nfs/workspaces/public/cfour_mpi/bin/xanti
 @GETMEM-I,  Allocated    3814 MB of main memory.
 CCSD MO derivative gammas will be sorted to Mulliken order.
 @CHECKOUT-I, Total execution time (CPU/WALL):        9.10/      19.29 seconds.
--executable xanti finished with status     0 in       19.32 seconds (walltime).
 --invoking executable--
/nfs/workspaces/public/cfour_mpi/bin/xbcktrn
 @GETMEM-I,  Allocated    3814 MB of main memory.
 CCSD MO derivative gammas will be transformed to the AO basis.
 @CHECKOUT-I, Total execution time (CPU/WALL):       16.43/       3.15 seconds.
--executable xbcktrn finished with status     0 in        3.17 seconds (walltime).
 --invoking executable--
/nfs/workspaces/public/cfour_mpi/bin/xvdint
 @GETMEM-I,  Allocated    3814 MB of main memory.
 One- and two-electron integral derivatives are calculated
 for RHF-CC/MBPT hessians and dipole derivatives.
 Spherical gaussians are used.
  magnet F F
                    8722  records have been written to the Sort file.
  Total length of Sort file :             178609116  words.
 Evaluation of 2el integral derivatives

                      Two-electron integral gradient
                      ------------------------------

                         C #1 z     0.0000000000
                         O #2 z     0.0000000000


 C #1       0.0000000000           -0.6513760464            0.0000000000
 O #2       0.0000000000            0.6513760464            0.0000000000


 Evaluation of 2e integral derivatives required  252.91 seconds.
  contribution to Hessian
        0.0000000000        0.0000000000        0.0000000000
        0.0000000000       -0.6513760464        0.6513760464
 @CHECKOUT-I, Total execution time (CPU/WALL):      252.90/      62.49 seconds.
--executable xvdint finished with status     0 in       62.52 seconds (walltime).
 --invoking executable--
/nfs/workspaces/public/cfour_mpi/bin/xanti
 @GETMEM-I,  Allocated    3814 MB of main memory.
 CCSD MO gammas will be sorted to Mulliken order.
 @CHECKOUT-I, Total execution time (CPU/WALL):       10.36/       8.92 seconds.
--executable xanti finished with status     0 in        8.95 seconds (walltime).
 --invoking executable--
/nfs/workspaces/public/cfour_mpi/bin/xbcktrn
 @GETMEM-I,  Allocated    3814 MB of main memory.
 CCSD MO gammas will be transformed to the AO basis.
 @CHECKOUT-I, Total execution time (CPU/WALL):       24.12/       3.67 seconds.
--executable xbcktrn finished with status     0 in        3.69 seconds (walltime).
 --invoking executable--
/nfs/workspaces/public/cfour_mpi/bin/xvdint
 @GETMEM-I,  Allocated    3814 MB of main memory.
 One- and two-electron integral derivatives are calculated
 for RHF-CC/MBPT hessians and dipole derivatives.
 Spherical gaussians are used.
  magnet F F

                     Kinetic energy integral gradient
                     --------------------------------

                         C #1 z    -1.5070238494
                         O #2 z     1.5070238494


 C #1       0.0000000000            0.0000000000           -1.5070238494
 O #2       0.0000000000            0.0000000000            1.5070238494



                   Nuclear attraction integral gradient
                   ------------------------------------

                         C #1 z    23.6876492323
                         O #2 z   -23.6876492323


 C #1       0.0000000000            0.0000000000           23.6876492323
 O #2       0.0000000000            0.0000000000          -23.6876492323



                      Reorthonormalization gradient
                      -----------------------------

                         C #1 z     0.0000000000
                         O #2 z     0.0000000000


 C #1       0.0000000000            0.0000000000            0.0000000000
 O #2       0.0000000000            0.0000000000            0.0000000000



                     Kinetic energy integral Hessian
                     -------------------------------


           Symmetry 1

           C #1 z      O #2 z

 C #1 z    1.093497
 O #2 z   -1.093497    1.093497


           Symmetry 2

           C #1 x      O #2 x

 C #1 x   -2.007699
 O #2 x    2.007699   -2.007699


           Symmetry 3

           C #1 y      O #2 y

 C #1 y   -2.007699
 O #2 y    2.007699   -2.007699




           C #1 x      C #1 y      C #1 z      O #2 x      O #2 y      O #2 z

 C #1 x   -2.007699
 C #1 y    0.000000   -2.007699
 C #1 z    0.000000    0.000000    1.093497

 O #2 x    2.007699    0.000000    0.000000   -2.007699
 O #2 y    0.000000    2.007699    0.000000    0.000000   -2.007699
 O #2 z    0.000000    0.000000   -1.093497    0.000000    0.000000    1.093497




                   Nuclear attraction integral Hessian
                   -----------------------------------


           Symmetry 1

           C #1 z      O #2 z

 C #1 z  -13.323105
 O #2 z   13.323105  -13.323105


           Symmetry 2

           C #1 x      O #2 x

 C #1 x   21.244658
 O #2 x  -21.244658   21.244658


           Symmetry 3

           C #1 y      O #2 y

 C #1 y   21.244658
 O #2 y  -21.244658   21.244658




           C #1 x      C #1 y      C #1 z      O #2 x      O #2 y      O #2 z

 C #1 x   21.244658
 C #1 y    0.000000   21.244658
 C #1 z    0.000000    0.000000  -13.323105

 O #2 x  -21.244658    0.000000    0.000000   21.244658
 O #2 y    0.000000  -21.244658    0.000000    0.000000   21.244658
 O #2 z    0.000000    0.000000   13.323105    0.000000    0.000000  -13.323105




                Highest order reorthonormalization Hessian
                ------------------------------------------


           Symmetry 1

           C #1 z      O #2 z

 C #1 z    0.000000
 O #2 z    0.000000    0.000000


           Symmetry 2

           C #1 x      O #2 x

 C #1 x    0.000000
 O #2 x    0.000000    0.000000


           Symmetry 3

           C #1 y      O #2 y

 C #1 y    0.000000
 O #2 y    0.000000    0.000000




           C #1 x      C #1 y      C #1 z      O #2 x      O #2 y      O #2 z




                Electronic contributions to dipole moment
                -----------------------------------------

                               au             Debye

                    z     -0.90276530     -2.29460091

  Conversion factor used: 1 a.u. =   2.54174691 Debye 



   Electronic contributions to static part of dipole moment derivatives
   --------------------------------------------------------------------


                     Total dipole moment derivatives
                     -------------------------------


           Symmetry 1
                              Ez

               C #1 z    -5.71330752
               O #2 z    -8.28669248

           Symmetry 2
                              Ex

               C #1 x    -5.79836098
               O #2 x    -8.20163902

           Symmetry 3
                              Ey

               C #1 y    -5.79836098
               O #2 y    -8.20163902



                       Ex          Ey          Ez

      C #1    x   -5.798361    0.000000    0.000000
      C #1    y    0.000000   -5.798361    0.000000
      C #1    z    0.000000    0.000000   -5.713308

      O #2    x   -8.201639    0.000000    0.000000
      O #2    y    0.000000   -8.201639    0.000000
      O #2    z    0.000000    0.000000   -8.286692

 Evaluation of 1e integral derivatives required    1.65 seconds.
                    8815  records have been written to the Sort file.
  Total length of Sort file :             180513570  words.
 Evaluation of 2el integral derivatives

                      Two-electron integral gradient
                      ------------------------------

                         C #1 z   -11.1730691155
                         O #2 z    11.1730691155


 C #1       0.0000000000            0.0000000000          -11.1730691155
 O #2       0.0000000000            0.0000000000           11.1730691155


 Evaluation of 2e integral derivatives required  543.05 seconds.

                            Molecular gradient
                            ------------------

                         C #1 z     0.4483168548
                         O #2 z    -0.4483168548


 C #1       0.0000000000            0.0000000000            0.4483168548
 O #2       0.0000000000            0.0000000000           -0.4483168548


  Molecular gradient norm 0.634E+00

                            Molecular hessian
                            -----------------


           Symmetry 1

           C #1 z      O #2 z

 C #1 z   65.954663
 O #2 z  -65.954663   65.954663


           Symmetry 2

           C #1 x      O #2 x

 C #1 x    2.726911
 O #2 x   -2.726911    2.726911


           Symmetry 3

           C #1 y      O #2 y

 C #1 y    2.726911
 O #2 y   -2.726911    2.726911




           C #1 x      C #1 y      C #1 z      O #2 x      O #2 y      O #2 z

 C #1 x    2.726911
 C #1 y    0.000000    2.726911
 C #1 z    0.000000    0.000000   65.954663

 O #2 x   -2.726911    0.000000    0.000000    2.726911
 O #2 y    0.000000   -2.726911    0.000000    0.000000    2.726911
 O #2 z    0.000000    0.000000  -65.954663    0.000000    0.000000   65.954663




                           Total dipole moment
                           -------------------

                               au             Debye

                    z     -0.05026592     -0.12776325

  Conversion factor used: 1 a.u. =   2.54174691 Debye 



                     Total dipole moment derivatives
                     -------------------------------


           Symmetry 1
                              Ez

               C #1 z     0.71394304
               O #2 z    -0.71394304

           Symmetry 2
                              Ex

               C #1 x    -0.02550200
               O #2 x     0.02550200

           Symmetry 3
                              Ey

               C #1 y    -0.02550200
               O #2 y     0.02550200



                       Ex          Ey          Ez

      C #1    x   -0.025502    0.000000    0.000000
      C #1    y    0.000000   -0.025502    0.000000
      C #1    z    0.000000    0.000000    0.713943

      O #2    x    0.025502    0.000000    0.000000
      O #2    y    0.000000    0.025502    0.000000
      O #2    z    0.000000    0.000000   -0.713943

 @CHECKOUT-I, Total execution time (CPU/WALL):      544.68/      99.17 seconds.
--executable xvdint finished with status     0 in       99.20 seconds (walltime).
 --invoking executable--
/nfs/workspaces/public/cfour_mpi/bin/xjoda
  @GTFLGS-I, Hessian will be transformed to curvilinear coordinates.
  @GTFLGS-I, Hessian will be transformed to curvilinear coordinates.
  igrd and ihes are                      0                     1
  gradient from JOBARC 
   0.000000000000000   0.000000000000000   0.448316854801124
   0.000000000000000   0.000000000000000  -0.448316854801124
 
  @PROJFCM-I, Projecting force constant matrix onto totally symmetric subspace.
  Largest difference between matrix elements of symmetrized
  and unsymmetrized FCM :    -0.3083178157E-10.
  read isotopes from ZMAT file 
 
  Summary of diagonal Born-Oppenheimer correction at the correlated level
  The total diagonal Born-Oppenheimer correction (DBOC) is:      0.0038713630 a.u.
  The total diagonal Born-Oppenheimer correction (DBOC) is:        849.665961 cm-1
  The total diagonal Born-Oppenheimer correction (DBOC) is:            10.164 kJ/mole
  hellooooooo 
  readis is  F
 
 @CHECKOUT-I, Total execution time (CPU/WALL):        0.01/       0.01 seconds.
--executable xjoda finished with status     0 in        0.03 seconds (walltime).
  The final electronic energy is      -113.281900474962910 a.u. 
  This computation required                         2397.40 seconds (walltime).
