 --invoking executable--
/nfs/workspaces/public/cfour_mpi/bin/xjoda


   *************************************************************************
         <<<     CCCCCC     CCCCCC   |||     CCCCCC     CCCCCC   >>>
       <<<      CCC        CCC       |||    CCC        CCC         >>>
      <<<      CCC        CCC        |||   CCC        CCC            >>>
    <<<        CCC        CCC        |||   CCC        CCC              >>>
      <<<      CCC        CCC        |||   CCC        CCC            >>>
       <<<      CCC        CCC       |||    CCC        CCC         >>>
         <<<     CCCCCC     CCCCCC   |||     CCCCCC     CCCCCC   >>>
   *************************************************************************

     ****************************************************************
     * CFOUR Coupled-Cluster techniques for Computational Chemistry *
     ****************************************************************
 

   Department of Chemistry                Institut fuer Physikalische Chemie
   University of Florida                  Universitaet Mainz
   Gainesville, FL 32611, USA             D-55099 Mainz, Germany

   Department of Chemistry                Fakultaet fuer Chemie und Biowiss.
   Johns Hopkins University               Karlsruher Institut fuer Technologie
   Baltimore, MD 21218, USA               D-76131 Karlsruhe, Germany

   Department of Chemistry                Department of Physical Chemistry
   Southern Methodist University          Eotvos Lorand University
   Dallas, TX 75275, USA                  H-1053 Budapest, Hungary

 
                       Version 2.1
 
                     vincent.theory.phys.ucl.ac.uk                     
                     Sat  1 Mar 22:52:31 GMT 2025                      
                     integer*8 version is running
 
********************************************************************************
*                          Input from ZMAT file                                *
********************************************************************************
Carbon Monoxide DBOC calculation                                                
C                                                                               
O 1 r                                                                           
                                                                                
r=1.1482758620689655                                                            
                                                                                
                                                                                
*CFOUR(CALC=CCSD,BASIS=AUG-PCVQZ,SCF_CONV=10                                    
CC_CONV=14,DBOC=ON,MEMORY=500000000                                             
ZFIELD=200)                                                                     
                                                                                
%isotopes                                                                       
12                                                                              
18                                                                              
********************************************************************************
  @GTFLGS-I, Hessian will be transformed to curvilinear coordinates.
    -------------------------------------------------------------------
                    CFOUR Control Parameters 
    -------------------------------------------------------------------
        External           Internal           Value            Units
          Name               Name
    -------------------------------------------------------------------
       ABCDTYPE             IABCDT         STANDARD    [  0]    ***   
       ANHARMONIC           IANHAR         OFF         [  0]    ***   
       ANH_ALGORIT          IANALG         STANDARD    [  0]    ***   
       ANH_DERIVAT          IANDER         SECOND      [  1]    ***   
       ANH_MODE             ANHMOD         VIBRATION   [  0]    ***   
       ANH_STEPSIZ          ICUBST             50000          x 10-6  
       ANH_SYMMETR          IANHSM         ABELIAN     [  0]    ***   
       AO_LADDERS           IAOLAD         SINGLEPASS  [  1]    ***   
       AV_SCF               IAVSCF         OFF         [  0]    ***   
       BASIS                IBASIS         AUG-PCVQZ   [ 52]    ***   
       BOTHVECTORS          BOTHVC         OFF         [  0]    ***   
       BOX_POTENT           IPIAB          OFF         [  0]    ***   
       BREIT                IBREIT         OFF         [  0]    ***   
       BRUCK_CONV           IBRTOL          10D-  4             ***   
       BRUECKNER            IBRKNR         OFF         [  0]    ***   
       BUFFERSIZE           IBUFFS              4096            ***   
       CACHE_RECS           ICHREC             10               ***   
       CALCLEVEL            ICLLVL         CCSD        [ 10]    ***   
       CCORBOPT             ICCORB         OFF         [  0]  x 0.01  
       CC_CONV              ICCCNV          10D- 14             ***   
       CC_EXPORDER          ICCEOR              5               ***   
       CC_EXTRAPOL          ICCEXT         DIIS        [  1]    ***   
       CC_GUESS             ICCGES         MP2         [  0]    ***   
       CC_MAXCYC            ICCCYC            100              cycles 
       CC_PROGRAM           ICCPRO         VCC         [  0]    ***   
       CHARGE               ICHRGE              0               ***   
       CHOLESKY             ICHOLE         OFF         [  0]    ***   
       CIS_CONV             ICISTL              5               ***   
       COMM_SIZE            IPSIZE            ***               ***   
       CONSTANT             ICONST         OLD         [  1]    ***   
       CONTINUUM            ICONTU         NONE        [  0]    ***   
       CONTRACTION          ICNTYP         GENERAL     [  1]    ***   
       COORDINATES          ICOORD         INTERNAL    [  0]    ***   
       CPHF_CONVER          ICPHFT          10D- 16             ***   
       CPHF_MAXCYC          ICPHFC             64              cycles 
       CUBIC                ICUBIC         OFF         [  0]    ***   
       CURVILINEAR          ICURVY         ON          [  1]    ***   
       DBOC                 IDBOC          ON          [  1]    ***   
       DCT                  IDCT           OFF         [  0]    ***   
       DERIV_LEV            IDRLVL         SECOND      [  2]    ***   
       DEVMEM_SIZE          IDVMEM          50000000           MByte  
       DIAG_MRCC            IEOMST          10D-  0             ***   
       DIFF_TYPE            IDIFTY         RELAXED     [  0]    ***   
       DIRECT               IDIRCT         OFF         [  0]    ***   
       DROPMO               IDRPMO      NONE         
       ECP                  IECP           OFF         [  0]    ***   
       EIGENVECTOR          IVEC                1               ***   
       EL_ANHARM            IELANH         OFF         [  0]    ***   
       EOMFOLLOW            IEOMSR         ENERGY      [  0]    ***   
       EOMIP                IEOMIP         OFF         [  0]    ***   
       EOMLEVEL             HBARFM         SAME        [  0]    ***   
       EOM_MRCC             IMRCCE         NEW         [  1]    ***   
       EOM_NONIT            EOMNON         OFF         [  0]    ***   
       EOM_NSING            IEOMSI          10D-  0             ***   
       EOM_NSTATES          IMRCCD         DAVIDSON    [  0]    ***   
       EOM_NTRIP            IEOMTR          10D-  0             ***   
       EOM_ORDER            IEXORD         ENERGY      [  0]    ***   
       EOM_PROPSTA          IEOMST              0               ***   
       ESTATE_CONV          IEXTOL          10D-  5             ***   
       ESTATE_DIAG          IEXDIG         ITERATIVE   [  0]    ***   
       ESTATE_LOCK          IESLOC         ON          [  1]    ***   
       ESTATE_MAXC          IEXMXC             40               ***   
       ESTATE_PROP          IEXPRP         OFF         [  0]    ***   
       EVAL_HESS            IRECAL              0            # of cyc.
       EXCITATION           IEXCIT              0               ***   
       EXCITE               IEXCIT         NONE        [  0]    ***   
       EXTERN_POT           IEXPOT         OFF         [  0]    ***   
       FCGRADNEW            IFCGNW         OFF         [  0]    ***   
       FC_FIELD             IFINFC              0             x 10-6  
       FD_CALTYPE           IFDCAL         GRADONLY    [  0]    ***   
       FD_PROJECT           IFDPRJ         OFF         [  1]    ***   
       FD_STEPSIZE          IDISFD              0            10-4 bohr
       FD_USEGROUP          IFDGRP         FULL        [  0]    ***   
       FILE_RECSIZ          IFLREC              4096           words  
       FINITE_PERT          IFIPER              0             x 10-6  
       FIXGEOM              IFIXGM         OFF         [  0]    ***   
       FOCK                 IFOCK          AO          [  1]    ***   
       FREQ_ALGORI          IVIALG         STANDARD    [  0]    ***   
       FROZEN_CORE          IFROCO         OFF         [  0]    ***   
       GAMMA_ABCD           IGABCD         STORE       [  0]    ***   
       GAMMA_ABCI           IGABCI         STORE       [  0]    ***   
       GENBAS_1             IGNBS1              0               ***   
       GENBAS_2             IGNBS2              0               ***   
       GENBAS_3             IGNBS3              0               ***   
       GENBAS_4             IGNBS4              0               ***   
       GEO_CONV             ICONTL              5              H/bohr 
       GEO_MAXCYC           IOPTCY             50               ***   
       GEO_MAXSTEP          IMXSTP            300            millibohr
       GEO_METHOD           INR            SINGLE_POINT[  5]    ***   
       GIAO                 IGIAO          OFF         [  1]    ***   
       GIMIC                IGIMIC         OFF         [  0]    ***   
       GRID                 IGRID          OFF         [  0]    ***   
       GRID_ALGO            IGALGO         SERIAL      [  0]    ***   
       GUESS                IGUESS         MOREAD      [  0]    ***   
       HBAR                 IHBAR          OFF         [  0]    ***   
       HESS_TYPE            IHESTP         SCF         [  0]    ***   
       HF2_FILE             IHF2Fl         USE         [  1]    ***   
       HFSTABILITY          ISTABL         OFF         [  0]    ***   
       INCORE               INCORE         OFF         [  0]    ***   
       INPUT_MRCC           IMRCC          ON          [  1]    ***   
       INTEGRALS            INTTYP         VMOL        [  1]    ***   
       JODA_PRINT           IJPRNT              0               ***   
       KEYWORD_OUT          IDMPKW         NO          [  0]    ***   
       LINDEP_TOL           ILINDP              8               ***   
       LINEQ_CONV           IZTACN          10D-  7           cycles  
       LINEQ_EXPOR          ILMAXD              5               ***   
       LINEQ_MAXCY          ILMAXC            100               ***   
       LINEQ_TYPE           ILTYPE         DIIS        [  1]    ***   
       LOCK_ORBOCC          ILOCOC         OFF         [  0]    ***   
       MEMORY_SIZE          IMEMSZ         500000000           words  
       MEM_UNIT             IMEMU          INTEGERWORDS[  0]    ***   
       MRCC                 IMRCCC         OFF         [  0]    ***   
       MULTIPLICTY          IMULTP              1               ***   
       NACOUPLING           IVCOUP         OFF         [  0]    ***   
       NEGEVAL              IDIE           ABORT       [  0]    ***   
       NEWNORM              INEWNO         OFF         [  0]    ***   
       NON-HF               INONHF         OFF         [  0]    ***   
       NTOP_TAMP            ITOPT2             15               ***   
       NUC_MODEL            INUCMO         POINT       [  0]    ***   
       OCCUPATION           IOCCU   ESTIMATED BY SCF 
       OPEN-SHELL           IOPEN          SPIN-ORBITAL[  0]    ***   
       OPTVIB               IOPTVB         OFF         [  0]    ***   
       ORBITALS             IORBTP         STANDARD    [  0]    ***   
       PARALLEL             IPARAL         ON          [  1]    ***   
       PARA_INT             IPINTS         ON          [  1]    ***   
       PARA_PRINT           IPPRIN              0               ***   
       PERT_ORB             IPTORB         STANDARD    [  0]    ***   
       POINTS               IGRDFD              0               ***   
       PRINT                IPRNT               0               ***   
       PROPS                IPROPS         OFF         [  0]    ***   
       PROP_INTEGR          IINTYP         INTERNAL    [  0]    ***   
       PSI                  IPSI           OFF         [  0]    ***   
       QC_ALG               IQCALG         FLM         [  0]    ***   
       QC_LINALG            IQCLIN         TRIDIAG     [  2]    ***   
       QC_MAXCYC            IQCMAX          10D-100           cycles  
       QC_MAXSCFCY          IQCMSC          10D- 15           cycles  
       QC_RTRUST            IQCRTR          10D-  0           x 10-3  
       QC_SKIPSCF           IQCSKI         OFF         [  0]    ***   
       QC_START             IQCSTA          10D-  1             ***   
       QRHFGUESS            IQGUES         OFF         [  0]    ***   
       QUARTIC              IQUART         OFF         [  0]    ***   
       RAMAN_INT            IRAMIN         OFF         [  0]    ***   
       RAMAN_ORB            IRAMRE         UNRELAXED   [  0]    ***   
       RDO                  IRDOFM         ON          [  1]    ***   
       REDUCE_REPR          REDREP         Ir          [  0]    ***   
       REFERENCE            IREFNC         RHF         [  0]    ***   
       RELATIVIST           IRELAT         OFF         [  0]    ***   
       RELAX_DENS           IRDENS         ON          [  1]    ***   
       RESET_FLAGS          IRESET         OFF         [  0]    ***   
       RESTART_CC           ICCRES         OFF         [  0]    ***   
       ROT_EVEC             ROTVEC              0               ***   
       SAVE_INTS            ISVINT         OFF         [  0]    ***   
       SCALE_ON             ISTCRT              0               ***   
       SCF_CONV             ISCFCV          10D- 10             ***   
       SCF_DAMPING          IDAMP               0             x 10-3  
       SCF_EXPORDE          IRPPOR              6               ***   
       SCF_EXPSTAR          IRPPLS              8               ***   
       SCF_EXTRAPO          IRPP           ON          [  1]    ***   
       SCF_MAXCYC           ISCFCY            150              cycles 
       SCF_NOSTOP           ISCFST         OFF         [  0]    ***   
       SCF_PRINT            ISCFPR              0               ***   
       SCF_PROG             ISCFPR         SCF         [  0]    ***   
       SD_FIELD             IFINSD              0             x 10-6  
       SOPERT               IPERSO         OFF         [  0]    ***   
       SPHERICAL            IDFGHI         ON          [  1]    ***   
       SPINORBIT            ISOCAL         OFF         [  0]    ***   
       SPINROTATIO          ISRCON         OFF         [  0]    ***   
       SPIN_FLIP            ISPFLP         OFF         [  0]    ***   
       SPIN_ORBIT           ISPORB         OFF         [  0]    ***   
       SPIN_SCAL            ISCSMP         OFF         [  0]    ***   
       STEEPSCALE           ISTPSC              1000          x 10-3  
       SUBGROUP             ISUBGP         DEFAULT     [  0]    ***   
       SUBGRPAXIS           ISBXYZ         X           [  0]    ***   
       SYMMETRY             ISYM           ON          [  0]    ***   
       SYM_CHECK            ISYMCK         OVERRIDE    [  1]    ***   
       T3_EXTRAPOL          IT3EXT         OFF         [  0]    ***   
       T4_EXTRAPOL          IT4EXP         OFF         [  0]    ***   
       TAMP_SUM             IEVERY              5               ***   
       TESTSUITE            ITESTS         OFF         [  0]    ***   
       THERMOCH             ITHERM         OFF         [  0]    ***   
       TOL_CHOLESK          ITOLCH          10D-  4             ***   
       TRANGRAD             IRESRM         OFF         [  0]    ***   
       TRANS_INV            ITRAIN         IGNORE      [  1]    ***   
       TREAT_PERT           ITREAT         SIMULTANEOUS[  0]    ***   
       TRIP_ALGORI          ITRALG         NORMAL      [  0]    ***   
       UIJ_THRESHO          IUIJTH              1               ***   
       UNITS                IUNITS         ANGSTROM    [  0]    ***   
       UNOS                 IUNOS          OFF         [  0]    ***   
       UPDATE_HESS          IHUPDT         ON          [  1]    ***   
       VIBPHASE             ISETPH         STANDARD    [  0]    ***   
       VIBRATION            IVIB           ANALYTIC    [  1]    ***   
       VIB_ALGORIT          IGEALG         STANDARD    [  0]    ***   
       VNATORB              IVNORB         OFF         [  0]    ***   
       VTRAN                IVTRAN         FULL/PARTIAL[  0]    ***   
       XFIELD               IXEFLD              0             x 10-6  
       XFORM_TOL            IXFTOL          10D- 11             ***   
       YFIELD               IYEFLD              0             x 10-6  
       ZFIELD               IZEFLD            200             x 10-6  
       ZSCALE_EXP           IZEXPS         OFF         [  0]    ***   
    -------------------------------------------------------------------
   2 entries found in Z-matrix 
   Job Title : Carbon Monoxide DBOC calculation                                                
   There are  1 unique internal coordinates.
   Of these,  0 will be optimized.
   User supplied Z-matrix: 
--------------------------------------------------------------------------------
       SYMBOL    BOND      LENGTH    ANGLE     ANGLE     DIHED     ANGLE
                  TO      (ANGST)    WRT      (DEG)      WRT      (DEG)
--------------------------------------------------------------------------------
        C    
        O          1         r    
                  *Initial values for internal coordinates* 
                      Name             Value
                        r               1.1482758621
--------------------------------------------------------------------------------
  read isotopes from ZMAT file 
   Rotational constants (in cm-1): 
          1.7757412843             1.7757412843
   Rotational constants (in MHz): 
      53235.3918987861         53235.3918987861
********************************************************************************
   The full molecular point group is CXv .
   The largest Abelian subgroup of the full molecular point group is C2v .
   The computational point group is C2v .
********************************************************************************
--------------------------------------------------------------------------------
   Analysis of internal coordinates specified by Z-matrix 
--------------------------------------------------------------------------------
   *The nuclear repulsion energy is   22.120556252252253 a.u.
   *There is   1 degree of freedom within the tot. symm. molecular subspace.
   *Z-matrix requests optimization of   0 coordinates.
   *The optimization is constrained.
   *The following   1 parameters can have non-zero 
    derivatives within the totally symmetric subspace:
             r    [ 1]
   *The following   0 parameters are to be optimized:

   *The following coordinates must be varied in an  unconstrained optimization.
             r    [ 1]
--------------------------------------------------------------------------------


 ----------------------------------------------------------------
         Coordinates used in calculation (QCOMP) 
 ----------------------------------------------------------------
 Z-matrix   Atomic            Coordinates (in bohr)
  Symbol    Number           X              Y              Z
 ----------------------------------------------------------------
     C         6        -0.00000000     0.00000000     1.30193211
     O         8         0.00000000     0.00000000    -0.86799524
 ----------------------------------------------------------------
 
   Interatomic distance matrix (Angstroms) 
 
                 C             O    
                [ 1]        [ 2]
  C    [ 1]     0.00000
  O    [ 2]     1.14828     0.00000
 rotcon2
   Rotational constants (in cm-1): 
          1.7757412843             0.0000000000
   Rotational constants (in MHz): 
      53235.3918987861             0.0000000000
  ECPDATA file not present.   Using default ECPDATA. 
  @GTFLGS-I, Hessian will be transformed to curvilinear coordinates.
  There are  218 basis functions.
 @CHECKOUT-I, Total execution time (CPU/WALL):        0.94/       1.25 seconds.
--executable xjoda finished with status     0 in        1.31 seconds (walltime).
 --invoking executable--
/nfs/workspaces/public/cfour_mpi/bin/xvmol
 SERIAL VERSION OF MOLECULE STARTED
********************************************************************************
                    INPUT FROM MOL FILE
********************************************************************************
INTGRL        1    0    1    0    0    0    0    0    0                         
         *** CFOUR Program System (Release V0.1) ***                            
Carbon Monoxide DBOC calculation                                                
    2    2 X  Y       0.10E-08              0    0                              
   9999.00      3.00                                                            
          6.00000000    1    5    1    1    1    1    1                         
C #1  -0.000000000000000   0.000000000000000   1.301932114569915                
   16    9                                                                      
   33980.0000000000       9.100000000000000E-005 -1.900000000000000E-005        
  0.000000000000000E+000  0.000000000000000E+000  0.000000000000000E+000        
  0.000000000000000E+000  0.000000000000000E+000  0.000000000000000E+000        
  0.000000000000000E+000                                                        
   5089.00000000000       7.040000000000000E-004 -1.510000000000000E-004        
  0.000000000000000E+000  0.000000000000000E+000  0.000000000000000E+000        
  0.000000000000000E+000  0.000000000000000E+000  0.000000000000000E+000        
  0.000000000000000E+000                                                        
   1157.00000000000       3.693000000000000E-003 -7.850000000000000E-004        
  0.000000000000000E+000  0.000000000000000E+000  0.000000000000000E+000        
  0.000000000000000E+000  0.000000000000000E+000  0.000000000000000E+000        
  0.000000000000000E+000                                                        
   326.600000000000       1.536000000000000E-002 -3.324000000000000E-003        
  0.000000000000000E+000  0.000000000000000E+000  0.000000000000000E+000        
  0.000000000000000E+000  0.000000000000000E+000  0.000000000000000E+000        
  0.000000000000000E+000                                                        
   106.100000000000       5.292900000000000E-002 -1.151200000000000E-002        
  0.000000000000000E+000  0.000000000000000E+000  0.000000000000000E+000        
  0.000000000000000E+000  0.000000000000000E+000  0.000000000000000E+000        
  0.000000000000000E+000                                                        
   38.1100000000000       0.147043000000000      -3.416000000000000E-002        
  0.000000000000000E+000  0.000000000000000E+000  0.000000000000000E+000        
  0.000000000000000E+000  0.000000000000000E+000  0.000000000000000E+000        
  0.000000000000000E+000                                                        
   14.7500000000000       0.305631000000000      -7.717300000000001E-002        
  0.000000000000000E+000  0.000000000000000E+000  0.000000000000000E+000        
  0.000000000000000E+000  0.000000000000000E+000  0.000000000000000E+000        
  0.000000000000000E+000                                                        
   6.03500000000000       0.399345000000000      -0.141493000000000             
  0.000000000000000E+000  0.000000000000000E+000  0.000000000000000E+000        
  0.000000000000000E+000  0.000000000000000E+000  0.000000000000000E+000        
  0.000000000000000E+000                                                        
   2.53000000000000       0.217051000000000      -0.118019000000000             
  0.000000000000000E+000  0.000000000000000E+000  0.000000000000000E+000        
  0.000000000000000E+000  0.000000000000000E+000  0.000000000000000E+000        
  0.000000000000000E+000                                                        
  0.735500000000000       1.589400000000000E-002  0.273806000000000             
   1.00000000000000       0.000000000000000E+000  0.000000000000000E+000        
  0.000000000000000E+000  0.000000000000000E+000  0.000000000000000E+000        
  0.000000000000000E+000                                                        
  0.290500000000000      -3.084000000000000E-003  0.586510000000000             
  0.000000000000000E+000   1.00000000000000       0.000000000000000E+000        
  0.000000000000000E+000  0.000000000000000E+000  0.000000000000000E+000        
  0.000000000000000E+000                                                        
  0.111100000000000       9.779999999999999E-004  0.285430000000000             
  0.000000000000000E+000  0.000000000000000E+000   1.00000000000000             
  0.000000000000000E+000  0.000000000000000E+000  0.000000000000000E+000        
  0.000000000000000E+000                                                        
   7.21600000000000       0.000000000000000E+000  0.000000000000000E+000        
  0.000000000000000E+000  0.000000000000000E+000  0.000000000000000E+000        
   1.00000000000000       0.000000000000000E+000  0.000000000000000E+000        
  0.000000000000000E+000                                                        
   19.5700000000000       0.000000000000000E+000  0.000000000000000E+000        
  0.000000000000000E+000  0.000000000000000E+000  0.000000000000000E+000        
  0.000000000000000E+000   1.00000000000000       0.000000000000000E+000        
  0.000000000000000E+000                                                        
   53.0730000000000       0.000000000000000E+000  0.000000000000000E+000        
  0.000000000000000E+000  0.000000000000000E+000  0.000000000000000E+000        
  0.000000000000000E+000  0.000000000000000E+000   1.00000000000000             
  0.000000000000000E+000                                                        
  4.145000000000000E-002  0.000000000000000E+000  0.000000000000000E+000        
  0.000000000000000E+000  0.000000000000000E+000  0.000000000000000E+000        
  0.000000000000000E+000  0.000000000000000E+000  0.000000000000000E+000        
   1.00000000000000                                                             
   10    8                                                                      
   34.5100000000000       5.378000000000000E-003  0.000000000000000E+000        
  0.000000000000000E+000  0.000000000000000E+000  0.000000000000000E+000        
  0.000000000000000E+000  0.000000000000000E+000  0.000000000000000E+000        
   7.91500000000000       3.613200000000000E-002  0.000000000000000E+000        
  0.000000000000000E+000  0.000000000000000E+000  0.000000000000000E+000        
  0.000000000000000E+000  0.000000000000000E+000  0.000000000000000E+000        
   2.36800000000000       0.142493000000000       0.000000000000000E+000        
  0.000000000000000E+000  0.000000000000000E+000  0.000000000000000E+000        
  0.000000000000000E+000  0.000000000000000E+000  0.000000000000000E+000        
  0.813200000000000       0.342150000000000        1.00000000000000             
  0.000000000000000E+000  0.000000000000000E+000  0.000000000000000E+000        
  0.000000000000000E+000  0.000000000000000E+000  0.000000000000000E+000        
  0.289000000000000       0.463864000000000       0.000000000000000E+000        
   1.00000000000000       0.000000000000000E+000  0.000000000000000E+000        
  0.000000000000000E+000  0.000000000000000E+000  0.000000000000000E+000        
  0.100700000000000       0.250028000000000       0.000000000000000E+000        
  0.000000000000000E+000   1.00000000000000       0.000000000000000E+000        
  0.000000000000000E+000  0.000000000000000E+000  0.000000000000000E+000        
   8.18200000000000       0.000000000000000E+000  0.000000000000000E+000        
  0.000000000000000E+000  0.000000000000000E+000   1.00000000000000             
  0.000000000000000E+000  0.000000000000000E+000  0.000000000000000E+000        
   24.1860000000000       0.000000000000000E+000  0.000000000000000E+000        
  0.000000000000000E+000  0.000000000000000E+000  0.000000000000000E+000        
   1.00000000000000       0.000000000000000E+000  0.000000000000000E+000        
   71.4940000000000       0.000000000000000E+000  0.000000000000000E+000        
  0.000000000000000E+000  0.000000000000000E+000  0.000000000000000E+000        
  0.000000000000000E+000   1.00000000000000       0.000000000000000E+000        
  3.218000000000000E-002  0.000000000000000E+000  0.000000000000000E+000        
  0.000000000000000E+000  0.000000000000000E+000  0.000000000000000E+000        
  0.000000000000000E+000  0.000000000000000E+000   1.00000000000000             
    6    6                                                                      
   1.84800000000000        1.00000000000000       0.000000000000000E+000        
  0.000000000000000E+000  0.000000000000000E+000  0.000000000000000E+000        
  0.000000000000000E+000                                                        
  0.649000000000000       0.000000000000000E+000   1.00000000000000             
  0.000000000000000E+000  0.000000000000000E+000  0.000000000000000E+000        
  0.000000000000000E+000                                                        
  0.228000000000000       0.000000000000000E+000  0.000000000000000E+000        
   1.00000000000000       0.000000000000000E+000  0.000000000000000E+000        
  0.000000000000000E+000                                                        
   8.65600000000000       0.000000000000000E+000  0.000000000000000E+000        
  0.000000000000000E+000   1.00000000000000       0.000000000000000E+000        
  0.000000000000000E+000                                                        
   33.2130000000000       0.000000000000000E+000  0.000000000000000E+000        
  0.000000000000000E+000  0.000000000000000E+000   1.00000000000000             
  0.000000000000000E+000                                                        
  7.660000000000000E-002  0.000000000000000E+000  0.000000000000000E+000        
  0.000000000000000E+000  0.000000000000000E+000  0.000000000000000E+000        
   1.00000000000000                                                             
    4    4                                                                      
   1.41900000000000        1.00000000000000       0.000000000000000E+000        
  0.000000000000000E+000  0.000000000000000E+000                                
  0.485000000000000       0.000000000000000E+000   1.00000000000000             
  0.000000000000000E+000  0.000000000000000E+000                                
   24.6940000000000       0.000000000000000E+000  0.000000000000000E+000        
   1.00000000000000       0.000000000000000E+000                                
  0.187000000000000       0.000000000000000E+000  0.000000000000000E+000        
  0.000000000000000E+000   1.00000000000000                                     
    2    2                                                                      
   1.01100000000000        1.00000000000000       0.000000000000000E+000        
  0.424000000000000       0.000000000000000E+000   1.00000000000000             
          8.00000000    1    5    1    1    1    1    1                         
O #2   0.000000000000000   0.000000000000000  -0.867995235024324                
   16    9                                                                      
   61420.0000000000       9.000000000000001E-005 -2.000000000000000E-005        
  0.000000000000000E+000  0.000000000000000E+000  0.000000000000000E+000        
  0.000000000000000E+000  0.000000000000000E+000  0.000000000000000E+000        
  0.000000000000000E+000                                                        
   9199.00000000000       6.980000000000001E-004 -1.590000000000000E-004        
  0.000000000000000E+000  0.000000000000000E+000  0.000000000000000E+000        
  0.000000000000000E+000  0.000000000000000E+000  0.000000000000000E+000        
  0.000000000000000E+000                                                        
   2091.00000000000       3.664000000000000E-003 -8.290000000000000E-004        
  0.000000000000000E+000  0.000000000000000E+000  0.000000000000000E+000        
  0.000000000000000E+000  0.000000000000000E+000  0.000000000000000E+000        
  0.000000000000000E+000                                                        
   590.900000000000       1.521800000000000E-002 -3.508000000000000E-003        
  0.000000000000000E+000  0.000000000000000E+000  0.000000000000000E+000        
  0.000000000000000E+000  0.000000000000000E+000  0.000000000000000E+000        
  0.000000000000000E+000                                                        
   192.300000000000       5.242300000000000E-002 -1.215600000000000E-002        
  0.000000000000000E+000  0.000000000000000E+000  0.000000000000000E+000        
  0.000000000000000E+000  0.000000000000000E+000  0.000000000000000E+000        
  0.000000000000000E+000                                                        
   69.3200000000000       0.145921000000000      -3.626100000000000E-002        
  0.000000000000000E+000  0.000000000000000E+000  0.000000000000000E+000        
  0.000000000000000E+000  0.000000000000000E+000  0.000000000000000E+000        
  0.000000000000000E+000                                                        
   26.9700000000000       0.305258000000000      -8.299200000000000E-002        
  0.000000000000000E+000  0.000000000000000E+000  0.000000000000000E+000        
  0.000000000000000E+000  0.000000000000000E+000  0.000000000000000E+000        
  0.000000000000000E+000                                                        
   11.1000000000000       0.398508000000000      -0.152090000000000             
  0.000000000000000E+000  0.000000000000000E+000  0.000000000000000E+000        
  0.000000000000000E+000  0.000000000000000E+000  0.000000000000000E+000        
  0.000000000000000E+000                                                        
   4.68200000000000       0.216980000000000      -0.115331000000000             
  0.000000000000000E+000  0.000000000000000E+000  0.000000000000000E+000        
  0.000000000000000E+000  0.000000000000000E+000  0.000000000000000E+000        
  0.000000000000000E+000                                                        
   1.42800000000000       1.759400000000000E-002  0.288979000000000             
   1.00000000000000       0.000000000000000E+000  0.000000000000000E+000        
  0.000000000000000E+000  0.000000000000000E+000  0.000000000000000E+000        
  0.000000000000000E+000                                                        
  0.554700000000000      -2.502000000000000E-003  0.586128000000000             
  0.000000000000000E+000   1.00000000000000       0.000000000000000E+000        
  0.000000000000000E+000  0.000000000000000E+000  0.000000000000000E+000        
  0.000000000000000E+000                                                        
  0.206700000000000       9.540000000000000E-004  0.277624000000000             
  0.000000000000000E+000  0.000000000000000E+000   1.00000000000000             
  0.000000000000000E+000  0.000000000000000E+000  0.000000000000000E+000        
  0.000000000000000E+000                                                        
   12.9740000000000       0.000000000000000E+000  0.000000000000000E+000        
  0.000000000000000E+000  0.000000000000000E+000  0.000000000000000E+000        
   1.00000000000000       0.000000000000000E+000  0.000000000000000E+000        
  0.000000000000000E+000                                                        
   34.9000000000000       0.000000000000000E+000  0.000000000000000E+000        
  0.000000000000000E+000  0.000000000000000E+000  0.000000000000000E+000        
  0.000000000000000E+000   1.00000000000000       0.000000000000000E+000        
  0.000000000000000E+000                                                        
   93.8810000000000       0.000000000000000E+000  0.000000000000000E+000        
  0.000000000000000E+000  0.000000000000000E+000  0.000000000000000E+000        
  0.000000000000000E+000  0.000000000000000E+000   1.00000000000000             
  0.000000000000000E+000                                                        
  6.959000000000000E-002  0.000000000000000E+000  0.000000000000000E+000        
  0.000000000000000E+000  0.000000000000000E+000  0.000000000000000E+000        
  0.000000000000000E+000  0.000000000000000E+000  0.000000000000000E+000        
   1.00000000000000                                                             
   10    8                                                                      
   63.4200000000000       6.044000000000000E-003  0.000000000000000E+000        
  0.000000000000000E+000  0.000000000000000E+000  0.000000000000000E+000        
  0.000000000000000E+000  0.000000000000000E+000  0.000000000000000E+000        
   14.6600000000000       4.179900000000000E-002  0.000000000000000E+000        
  0.000000000000000E+000  0.000000000000000E+000  0.000000000000000E+000        
  0.000000000000000E+000  0.000000000000000E+000  0.000000000000000E+000        
   4.45900000000000       0.161143000000000       0.000000000000000E+000        
  0.000000000000000E+000  0.000000000000000E+000  0.000000000000000E+000        
  0.000000000000000E+000  0.000000000000000E+000  0.000000000000000E+000        
   1.53100000000000       0.356731000000000        1.00000000000000             
  0.000000000000000E+000  0.000000000000000E+000  0.000000000000000E+000        
  0.000000000000000E+000  0.000000000000000E+000  0.000000000000000E+000        
  0.530200000000000       0.448309000000000       0.000000000000000E+000        
   1.00000000000000       0.000000000000000E+000  0.000000000000000E+000        
  0.000000000000000E+000  0.000000000000000E+000  0.000000000000000E+000        
  0.175000000000000       0.244940000000000       0.000000000000000E+000        
  0.000000000000000E+000   1.00000000000000       0.000000000000000E+000        
  0.000000000000000E+000  0.000000000000000E+000  0.000000000000000E+000        
   14.4750000000000       0.000000000000000E+000  0.000000000000000E+000        
  0.000000000000000E+000  0.000000000000000E+000   1.00000000000000             
  0.000000000000000E+000  0.000000000000000E+000  0.000000000000000E+000        
   42.7300000000000       0.000000000000000E+000  0.000000000000000E+000        
  0.000000000000000E+000  0.000000000000000E+000  0.000000000000000E+000        
   1.00000000000000       0.000000000000000E+000  0.000000000000000E+000        
   126.140000000000       0.000000000000000E+000  0.000000000000000E+000        
  0.000000000000000E+000  0.000000000000000E+000  0.000000000000000E+000        
  0.000000000000000E+000   1.00000000000000       0.000000000000000E+000        
  5.348000000000000E-002  0.000000000000000E+000  0.000000000000000E+000        
  0.000000000000000E+000  0.000000000000000E+000  0.000000000000000E+000        
  0.000000000000000E+000  0.000000000000000E+000   1.00000000000000             
    6    6                                                                      
   3.77500000000000        1.00000000000000       0.000000000000000E+000        
  0.000000000000000E+000  0.000000000000000E+000  0.000000000000000E+000        
  0.000000000000000E+000                                                        
   1.30000000000000       0.000000000000000E+000   1.00000000000000             
  0.000000000000000E+000  0.000000000000000E+000  0.000000000000000E+000        
  0.000000000000000E+000                                                        
  0.444000000000000       0.000000000000000E+000  0.000000000000000E+000        
   1.00000000000000       0.000000000000000E+000  0.000000000000000E+000        
  0.000000000000000E+000                                                        
   14.9270000000000       0.000000000000000E+000  0.000000000000000E+000        
  0.000000000000000E+000   1.00000000000000       0.000000000000000E+000        
  0.000000000000000E+000                                                        
   57.5440000000000       0.000000000000000E+000  0.000000000000000E+000        
  0.000000000000000E+000  0.000000000000000E+000   1.00000000000000             
  0.000000000000000E+000                                                        
  0.154000000000000       0.000000000000000E+000  0.000000000000000E+000        
  0.000000000000000E+000  0.000000000000000E+000  0.000000000000000E+000        
   1.00000000000000                                                             
    4    4                                                                      
   2.66600000000000        1.00000000000000       0.000000000000000E+000        
  0.000000000000000E+000  0.000000000000000E+000                                
  0.859000000000000       0.000000000000000E+000   1.00000000000000             
  0.000000000000000E+000  0.000000000000000E+000                                
   26.4830000000000       0.000000000000000E+000  0.000000000000000E+000        
   1.00000000000000       0.000000000000000E+000                                
  0.324000000000000       0.000000000000000E+000  0.000000000000000E+000        
  0.000000000000000E+000   1.00000000000000                                     
    2    2                                                                      
   1.84600000000000        1.00000000000000       0.000000000000000E+000        
  0.714000000000000       0.000000000000000E+000   1.00000000000000             
FINISH                                                                          
 
********************************************************************************
 ONE- AND TWO-ELECTRON INTEGRALS OVER SYMMETRY-ADAPTED AOS ARE CALCULATED.

  SPHERICAL HARMONICS ARE USED.
  
  INTEGRALS LESS THAN  0.10E-13 ARE NEGLECTED.

  NUCLEAR REPULSION ENERGY :   22.1205562523 A.U.
  @MOLECU-I, ONE ELECTRON INTEGRALS (CPU/WALL):        0.16/       0.18 SECONDS.
  @TWOEL-I,    4587106 INTEGRALS OF SYMMETRY TYPE  I I I I
  @TWOEL-I,   19695621 INTEGRALS OF SYMMETRY TYPE  I J I J
  @TWOEL-I,   10378887 INTEGRALS OF SYMMETRY TYPE  I I J J
  @TWOEL-I,   14572675 INTEGRALS OF SYMMETRY TYPE  I J K L
  @TWOEL-I, TOTAL NUMBER OF 2-E INTEGRALS   49234289.
  @MOLECU-I, TWO ELECTRON INTEGRALS (CPU/WALL):      257.68/      34.92 SECONDS.
 @CHECKOUT-I, Total execution time (CPU/WALL):      257.85/      35.14 seconds.

Running with 14 threads/proc

--executable xvmol finished with status     0 in       35.26 seconds (walltime).
 --invoking executable--
/nfs/workspaces/public/cfour_mpi/bin/xvmol2ja
 @GETMEM-I,  Allocated    3814 MB of main memory.
 @CHECKOUT-I, Total execution time (CPU/WALL):        0.22/       0.05 seconds.
--executable xvmol2ja finished with status     0 in        0.11 seconds (walltime).
 --invoking executable--
/nfs/workspaces/public/cfour_mpi/bin/xvprop
 @GETMEM-I,  Allocated    3814 MB of main memory.
   Property integrals will be calculated.
    --------------------------------------------------------------
                                   Property evaluated at 
    Property type                X             Y             Z
    --------------------------------------------------------------
    Dipole moment               ----          ----          ----  
    Quadrupole moment           ----          ----          ----  
    Octopole moment             ----          ----          ----  
    Relativisitic corr.         ----          ----          ----  
    Second moment            0.0000000     0.0000000     0.0000000
    Electron density         0.0000000     0.0000000     1.3019321
    Electron density         0.0000000     0.0000000    -0.8679952
    Field gradient           0.0000000     0.0000000     1.3019321
    Field gradient           0.0000000     0.0000000    -0.8679952
    Potential                0.0000000     0.0000000     1.3019321
    Potential                0.0000000     0.0000000    -0.8679952
    --------------------------------------------------------------
 @CHECKOUT-I, Total execution time (CPU/WALL):        1.40/       1.41 seconds.
--executable xvprop finished with status     0 in        1.46 seconds (walltime).
 --invoking executable--
/nfs/workspaces/public/cfour_mpi/bin/xvscf
  There are  218 functions in the AO basis.

  There are 4 irreducible representations.

       Irrep        # of functions
         1                 86
         2                 52
         3                 52
         4                 28


  Parameters for SCF calculation: 
        SCF reference function:  RHF  
  Maximum number of iterations:  150
     Full symmetry point group: CXv 
     Computational point group: C2v 
        Initial density matrix: MOREAD                 
     SCF convergence tolerance: 10**(-10)
  DIIS convergence acceleration:  ON
          Latest start for DIIS:   8
                     DIIS order:   6

  Memory information:    2523578 words required.
  Fock matrices are constructed from AO integral file.
 @GETMEM-I,  Allocated      19 MB of main memory.
  Initialization and symmetry analysis required      0.002 seconds.

  Adding electric field perturbation to one-electron Hamiltonian.
  Field direction     : Z
  Field strength      :  0.0002000 a.u.

  @INITGES-I, Occupancies from core Hamiltonian:

          Alpha population by irrep:   5    1    1    0
           Beta population by irrep:   5    1    1    0


 total no. of electrons in initial guess :  0.000000000000000E+000
  --------------------------------------------------------------------
  Iteration         Total Energy            Largest Density Difference
  --------------------------------------------------------------------
       0            22.120382726091247              0.0000000000D+00
   current occupation vector 
     5  1  1  0
     5  1  1  0
       1           -91.942570069777361              0.1859407489D+02
   current occupation vector 
     5  1  1  0
     5  1  1  0
       2           -96.887087538425945              0.1858969130D+02
   current occupation vector 
     5  1  1  0
     5  1  1  0
       3          -103.410608439644605              0.1733878127D+02
   current occupation vector 
     5  1  1  0
     5  1  1  0
       4          -100.320372706650573              0.7515822841D+01
   current occupation vector 
     5  1  1  0
     5  1  1  0
       5          -103.224324598752887              0.7028066039D+01
   current occupation vector 
     5  1  1  0
     5  1  1  0
       6          -100.207195984808124              0.5827587025D+01
   current occupation vector 
     5  1  1  0
     5  1  1  0
       7          -103.099746702244573              0.5667212136D+01
   current occupation vector 
     5  1  1  0
     5  1  1  0
       8          -100.014508040462090              0.5655583746D+01
   current occupation vector 
     5  1  1  0
     5  1  1  0
       9          -110.680627772588153              0.4262545715D+01
   current occupation vector 
     5  1  1  0
     5  1  1  0
      10          -112.232077653523575              0.9238464658D+00
   current occupation vector 
     5  1  1  0
     5  1  1  0
      11          -112.766979334497748              0.5189760525D+00
   current occupation vector 
     5  1  1  0
     5  1  1  0
      12          -112.785184733034797              0.1151213350D+00
   current occupation vector 
     5  1  1  0
     5  1  1  0
      13          -112.785701333929453              0.2690407642D-01
   current occupation vector 
     5  1  1  0
     5  1  1  0
      14          -112.785798973738324              0.1472693551D-01
   current occupation vector 
     5  1  1  0
     5  1  1  0
      15          -112.785804964460581              0.4874719023D-02
   current occupation vector 
     5  1  1  0
     5  1  1  0
      16          -112.785805026775378              0.4341485494D-03
   current occupation vector 
     5  1  1  0
     5  1  1  0
      17          -112.785805028521892              0.4829381426D-04
   current occupation vector 
     5  1  1  0
     5  1  1  0
      18          -112.785805028570039              0.9127483302D-05
   current occupation vector 
     5  1  1  0
     5  1  1  0
      19          -112.785805028572881              0.1743326899D-05
   current occupation vector 
     5  1  1  0
     5  1  1  0
      20          -112.785805028572625              0.3363026919D-06
   current occupation vector 
     5  1  1  0
     5  1  1  0
      21          -112.785805028572227              0.4386488017D-07
   current occupation vector 
     5  1  1  0
     5  1  1  0
      22          -112.785805028572454              0.1108019765D-07
   current occupation vector 
     5  1  1  0
     5  1  1  0
      23          -112.785805028572653              0.6095188354D-08
   current occupation vector 
     5  1  1  0
     5  1  1  0
      24          -112.785805028572653              0.1721858767D-09
   current occupation vector 
     5  1  1  0
     5  1  1  0
      25          -112.785805028572256              0.1394690474D-09
   current occupation vector 
     5  1  1  0
     5  1  1  0
      26          -112.785805028572909              0.1126960747D-09
   current occupation vector 
     5  1  1  0
     5  1  1  0

  SCF has converged.

 Density matrix saved to file den.dat
 total electron number:   14.0000000000000     
     E(SCF)=      -112.785805028572341              0.3580249985D-10

  Eigenvector printing suppressed.

 @PUTMOS-I, Writing converged MOs to NEWMOS. 
 @PUTMOS-I, Symmetry   1 Full Blocks 21 Partial Blocksize   2
 @PUTMOS-I, Symmetry   2 Full Blocks 13 Partial Blocksize   0
 @PUTMOS-I, Symmetry   3 Full Blocks 13 Partial Blocksize   0
 @PUTMOS-I, Symmetry   4 Full Blocks  7 Partial Blocksize   0
 @PUTFOCK-I, Writing converged Fock matrix to NEWFOCK. 
 @PUTFOCK-I, Symmetry   1 Full Blocks 21 Partial Blocksize   2
 @PUTFOCK-I, Symmetry   2 Full Blocks 13 Partial Blocksize   0
 @PUTFOCK-I, Symmetry   3 Full Blocks 13 Partial Blocksize   0
 @PUTFOCK-I, Symmetry   4 Full Blocks  7 Partial Blocksize   0


 
  ORBITAL EIGENVALUES (ALPHA)  (1H = 27.2113834 eV)

       MO #        E(hartree)               E(eV)           FULLSYM    COMPSYM
       ----   --------------------   --------------------   -------   ---------
    1     1         -20.6658048493        -562.3451390242     SG+        A1 (1)
    2     2         -11.3693117969        -309.3747022988     SG+        A1 (1)
    3     3          -1.5079282795         -41.0328145533     SG+        A1 (1)
    4     4          -0.8029205598         -21.8485791913     SG+        A1 (1)
    5    87          -0.6317233554         -17.1900664272      PI        B1 (2)
    6   139          -0.6317233554         -17.1900664272      PI        B2 (3)
    7     5          -0.5569452474         -15.1552506605     SG+        A1 (1)
  +++++++++++++++++++++++++++++++++++++++++++++++++++++++++++++++++++++++++++++
    8     6           0.0600207281           1.6332470446     SG+        A1 (1)
    9    88           0.0625380793           1.7017476527      PI        B1 (2)
   10   140           0.0625380793           1.7017476527      PI        B2 (3)
   11     7           0.0753121214           2.0493470096     SG+        A1 (1)
   12   141           0.1362985299           3.7088715528      PI        B2 (3)
   13    89           0.1362985299           3.7088715528      PI        B1 (2)
   14     8           0.1560139077           4.2453542589     SG+        A1 (1)
   15   142           0.1661844255           4.5221081168      PI        B2 (3)
   16    90           0.1661844255           4.5221081168      PI        B1 (2)
   17     9           0.2280705266           6.2061145411     SG+        A1 (1)
   18   191           0.2281073618           6.2071168782      DE        A2 (4)
   19    10           0.2281073618           6.2071168782      DE        A1 (1)
   20    11           0.3013326904           8.1996793707     SG+        A1 (1)
   21   143           0.3190808449           8.6826312050      PI        B2 (3)
   22    91           0.3190808449           8.6826312050      PI        B1 (2)
   23    12           0.3914671979          10.6523640108     SG+        A1 (1)
   24   144           0.3955210708          10.7626755011      PI        B2 (3)
   25    92           0.3955210708          10.7626755011      PI        B1 (2)
   26    13           0.5082270141          13.8295601338     SG+        A1 (1)
   27   192           0.5357796166          14.5793045655      DE        A2 (4)
   28    14           0.5357796166          14.5793045655      DE        A1 (1)
   29   145           0.6234190566          16.9640949688      PI        B2 (3)
   30    93           0.6234190566          16.9640949688      PI        B1 (2)
   31    15           0.6391133183          17.3911575392     SG+        A1 (1)
   32   146           0.7486026317          20.3705132252      PH        B2 (3)
   33    94           0.7486026317          20.3705132252      PH        B1 (2)
   34   193           0.7680755605          20.9003985564      DE        A2 (4)
   35    16           0.7680755605          20.9003985564      DE        A1 (1)
   36    17           0.7794154968          21.2089739103     SG+        A1 (1)
   37   147           0.8213102739          22.3489887541      PI        B2 (3)
   38    95           0.8213102739          22.3489887541      PI        B1 (2)
   39    18           0.8711304027          23.7046633793     SG+        A1 (1)
   40   148           0.8826185077          24.0172706101      PI        B2 (3)
   41    96           0.8826185077          24.0172706102      PI        B1 (2)
   42    19           0.8900345453          24.2190712516      DE        A1 (1)
   43   194           0.8900345453          24.2190712516      DE        A2 (4)
   44    20           0.9006701600          24.5084810408     SG+        A1 (1)
   45   149           1.0726080566          29.1871490670      PI        B2 (3)
   46    97           1.0726080566          29.1871490670      PI        B1 (2)
   47    21           1.1814360152          32.1485083726     SG+        A1 (1)
   48    98           1.4460018719          39.3477113336      PH        B1 (2)
   49   150           1.4460018719          39.3477113336      PH        B2 (3)
   50    22           1.4663870619          39.9024205540     SG+        A1 (1)
   51   195           1.5206519457          41.3790431130      DE        A2 (4)
   52    23           1.5206519457          41.3790431130      DE        A1 (1)
   53    99           1.5566675963          42.3590787894      PI        B1 (2)
   54   151           1.5566675963          42.3590787894      PI        B2 (3)
   55    24           1.6674873969          45.3746388723     SG+        A1 (1)
   56   196           1.7664845382          48.0684880386      DE        A2 (4)
   57    25           1.7664845382          48.0684880386      DE        A1 (1)
   58    26           1.7771922310          48.3598591743     SG+        A1 (1)
   59   152           1.7900420917          48.7095216597      PI        B2 (3)
   60   100           1.7900420917          48.7095216597      PI        B1 (2)
   61   153           1.9775566602          53.8120524766      PI        B2 (3)
   62   101           1.9775566602          53.8120524766      PI        B1 (2)
   63   197           2.1044811142          57.2658424575      PI        A2 (4)
   64    27           2.1044811142          57.2658424575      PI        A1 (1)
   65    28           2.1232867558          57.7775699802     SG+        A1 (1)
   66   198           2.1920739282          59.6493641015      DE        A2 (4)
   67    29           2.1920739282          59.6493641015      DE        A1 (1)
   68   102           2.2504197953          61.2370358612      PH        B1 (2)
   69   154           2.2504197953          61.2370358612      PH        B2 (3)
   70    30           2.3142764730          62.9746644009     SG+        A1 (1)
   71   155           2.3212195511          63.1635951600      PI        B2 (3)
   72   103           2.3212195511          63.1635951600      PI        B1 (2)
   73   104           2.3559832749          64.1095641772      PH        B1 (2)
   74   156           2.3559832749          64.1095641772      PH        B2 (3)
   75    31           2.3616012456          64.2624369309      DE        A1 (1)
   76   199           2.3616012456          64.2624369309      DE        A2 (4)
   77    32           2.4836378928          67.5832229277     SG+        A1 (1)
   78   157           2.5938533759          70.5823386956      PI        B2 (3)
   79   105           2.5938533759          70.5823386956      PI        B1 (2)
   80   158           2.8139468453          76.5713864746      PI        B2 (3)
   81   106           2.8139468453          76.5713864746      PI        B1 (2)
   82    33           2.9146548532          79.3117906878     SG+        A1 (1)
   83   200           2.9925288293          81.4308493095      DE        A2 (4)
   84    34           2.9925288293          81.4308493098      DE        A1 (1)
   85    35           3.4798512822          94.6915674147     SG+        A1 (1)
   86   201           3.7201470219         101.2303469163      PI        A2 (4)
   87    36           3.7201470219         101.2303469163      PI        A1 (1)
   88   159           3.7442320763         101.8857345674      PI        B2 (3)
   89   107           3.7442320763         101.8857345675      PI        B1 (2)
   90    37           3.9399631975         107.2118491492     SG+        A1 (1)
   91   108           4.0843790834         111.1416051904      PH        B1 (2)
   92   160           4.0843790834         111.1416051904      PH        B2 (3)
   93   202           4.1778867513         113.6860781901      DE        A2 (4)
   94    38           4.1778867513         113.6860781901      DE        A1 (1)
   95   161           4.2093440744         114.5420754716      PI        B2 (3)
   96   109           4.2093440744         114.5420754716      PI        B1 (2)
   97   110           4.2626627097         115.9929492986      PH        B1 (2)
   98   162           4.2626627097         115.9929492986      PH        B2 (3)
   99    39           4.2661639267         116.0882222558     SG+        A1 (1)
  100   203           4.3731358255         118.9990756068      DE        A2 (4)
  101    40           4.3731358255         118.9990756069      DE        A1 (1)
  102    41           4.5037728484         122.5538897238     SG+        A1 (1)
  103   163           4.7692740527         129.7785447867      PI        B2 (3)
  104   111           4.7692740527         129.7785447868      PI        B1 (2)
  105    42           5.0397747524         137.1392430382     SG+        A1 (1)
  106   164           5.0997705088         138.7718105679      PI        B2 (3)
  107   112           5.0997705088         138.7718105679      PI        B1 (2)
  108   204           5.1395945339         139.8554773820      DE        A2 (4)
  109    43           5.1395945339         139.8554773821      DE        A1 (1)
  110    44           5.7810687033         157.3108769469     SG+        A1 (1)
  111   165           5.7934496073         157.6477784737      PI        B2 (3)
  112   113           5.7934496073         157.6477784737      PI        B1 (2)
  113   205           5.8981505672         160.4968364344      PI        A2 (4)
  114    45           5.8981505672         160.4968364344      PI        A1 (1)
  115   166           6.1173184026         166.4606964319      PH        B2 (3)
  116   114           6.1173184026         166.4606964319      PH        B1 (2)
  117    46           6.2357862436         169.6843702747     SG+        A1 (1)
  118   206           6.2994657439         171.4171775713      DE        A2 (4)
  119    47           6.2994657439         171.4171775714      DE        A1 (1)
  120   167           6.3228608758         172.0537914765      PI        B2 (3)
  121   115           6.3228608758         172.0537914765      PI        B1 (2)
  122   116           6.4398677567         175.2377105725      PH        B1 (2)
  123   168           6.4398677567         175.2377105725      PH        B2 (3)
  124   207           6.5809541428         179.0768663187      DE        A2 (4)
  125    48           6.5809541429         179.0768663190      DE        A1 (1)
  126    49           7.0115347494         190.7935602882     SG+        A1 (1)
  127    50           7.2753250424         197.9716590881      DE        A1 (1)
  128   208           7.2753250424         197.9716590881      DE        A2 (4)
  129   169           7.4461607482         202.6203349779      PI        B2 (3)
  130   117           7.4461607482         202.6203349780      PI        B1 (2)
  131    51           7.7627063915         211.2339798408     SG+        A1 (1)
  132    52           8.2058344936         223.2921085211     SG+        A1 (1)
  133   170           8.4276160744         229.3270921491      PI        B2 (3)
  134   118           8.4276160744         229.3270921492      PI        B1 (2)
  135   171          10.1223531011         275.4432311445      PI        B2 (3)
  136   119          10.1223531011         275.4432311447      PI        B1 (2)
  137    53          10.5659243055         287.5134172517     SG+        A1 (1)
  138   209          10.6028255454         288.5175510387      PI        A2 (4)
  139    54          10.6028255454         288.5175510387      PI        A1 (1)
  140   172          10.8690841081         295.7628148720      PH        B2 (3)
  141   120          10.8690841081         295.7628148720      PH        B1 (2)
  142   210          11.1175270868         302.5232920175      DE        A2 (4)
  143    55          11.1175270868         302.5232920176      DE        A1 (1)
  144    56          11.1298949345         302.8598382634     SG+        A1 (1)
  145   173          11.3621099180         309.1787292116      PI        B2 (3)
  146   121          11.3621099180         309.1787292116      PI        B1 (2)
  147    57          11.5442628683         314.1353629802     SG+        A1 (1)
  148   174          11.8549147602         322.5886307141      PH        B2 (3)
  149   122          11.8549147602         322.5886307141      PH        B1 (2)
  150   211          12.2725292322         333.9524982260      DE        A2 (4)
  151    58          12.2725292322         333.9524982261      DE        A1 (1)
  152   175          12.6167539559         343.3193291564      PI        B2 (3)
  153   123          12.6167539559         343.3193291564      PI        B1 (2)
  154    59          12.8648232370         350.0696374759      DE        A1 (1)
  155   212          12.8648232370         350.0696374759      DE        A2 (4)
  156    60          13.2438968074         360.3847537369     SG+        A1 (1)
  157   176          14.0776784437         383.0731055143      PI        B2 (3)
  158   124          14.0776784437         383.0731055143      PI        B1 (2)
  159    61          15.4814324136         421.2711929871     SG+        A1 (1)
  160    62          18.0210046908         490.3764678950     SG+        A1 (1)
  161   125          19.3757355573         527.2405689067      PI        B1 (2)
  162   177          19.3757355573         527.2405689067      PI        B2 (3)
  163    63          20.6244972389         561.2211017996     SG+        A1 (1)
  164   213          26.5185723802         721.6070402575      DE        A2 (4)
  165    64          26.5185723802         721.6070402576      DE        A1 (1)
  166   178          26.9865079687         734.3402149624      PI        B2 (3)
  167   126          26.9865079687         734.3402149625      PI        B1 (2)
  168    65          28.1563870640         766.1742435579     SG+        A1 (1)
  169   127          33.7890095264         919.4456929297      PI        B1 (2)
  170   179          33.7890095264         919.4456929300      PI        B2 (3)
  171    66          34.9592924366         951.2907098862     SG+        A1 (1)
  172    67          36.7525521934        1000.0877886622     SG+        A1 (1)
  173   214          47.1181361101        1282.1496667859      DE        A2 (4)
  174    68          47.1181361101        1282.1496667860      DE        A1 (1)
  175   180          47.6722261747        1297.2272239710      PI        B2 (3)
  176   128          47.6722261747        1297.2272239711      PI        B1 (2)
  177    69          48.5378119007        1320.7810090282     SG+        A1 (1)
  178    70          64.2035476643        1747.0673511323     SG+        A1 (1)
  179   129          66.8249751723        1818.4000201095      PI        B1 (2)
  180   181          66.8249751723        1818.4000201096      PI        B2 (3)
  181    71          67.7950683230        1844.7975967656     SG+        A1 (1)
  182   182          98.6672621605        2684.8726996787      PH        B2 (3)
  183   130          98.6672621605        2684.8726996787      PH        B1 (2)
  184    72          98.6885359777        2685.4515896746      DE        A1 (1)
  185   215          98.6885359777        2685.4515896746      DE        A2 (4)
  186   131          98.7540494830        2687.2343027857      PI        B1 (2)
  187   183          98.7540494830        2687.2343027857      PI        B2 (3)
  188    73          98.7660624903        2687.5611933308     SG+        A1 (1)
  189   132         103.2836636600        2810.4913708083      PH        B1 (2)
  190   184         103.2836636600        2810.4913708083      PH        B2 (3)
  191   216         103.3318469087        2811.8025036621      DE        A2 (4)
  192    74         103.3318469088        2811.8025036645      DE        A1 (1)
  193   133         103.3597281048        2812.5611895788      PI        B1 (2)
  194   185         103.3597281048        2812.5611895789      PI        B2 (3)
  195    75         103.4169562431        2814.1184463919     SG+        A1 (1)
  196   217         115.1755197963        3134.0852274714      DE        A2 (4)
  197    76         115.1755197963        3134.0852274714      DE        A1 (1)
  198   134         115.4042848199        3140.3102402376      PI        B1 (2)
  199   186         115.4042848199        3140.3102402376      PI        B2 (3)
  200    77         116.0011156514        3156.5508328178     SG+        A1 (1)
  201   135         117.0389028442        3184.7904580095      PI        B1 (2)
  202   187         117.0389028442        3184.7904580099      PI        B2 (3)
  203    78         118.0082720976        3211.1683364205     SG+        A1 (1)
  204    79         122.8804039050        3343.7457830066     SG+        A1 (1)
  205   218         198.5762643131        5403.5348623628      DE        A2 (4)
  206    80         198.5762643131        5403.5348623629      DE        A1 (1)
  207   136         198.8757713987        5411.6848644999      PI        B1 (2)
  208   188         198.8757713987        5411.6848645003      PI        B2 (3)
  209    81         199.3078451741        5423.4421896603     SG+        A1 (1)
  210    82         216.6826925686        5896.2358236288     SG+        A1 (1)
  211   189         225.2400788500        6129.0941426336      PI        B2 (3)
  212   137         225.2400788500        6129.0941426337      PI        B1 (2)
  213    83         226.0359306953        6150.7503723264     SG+        A1 (1)
  214   138         395.4972144960       10762.0263372836      PI        B1 (2)
  215   190         395.4972144960       10762.0263372839      PI        B2 (3)
  216    84         396.3017750383       10783.9195426686     SG+        A1 (1)
  217    85         509.4248494828       13862.1548927639     SG+        A1 (1)
  218    86         895.5123499476       24368.1298938578     SG+        A1 (1)


  VSCF finished.

 @CHECKOUT-I, Total execution time (CPU/WALL):       49.30/      11.77 seconds.
--executable xvscf finished with status     0 in       11.85 seconds (walltime).
 --invoking executable--
/nfs/workspaces/public/cfour_mpi/bin/xvtran
 @GETMEM-I,  Allocated    3814 MB of main memory.
  Full RHF integral transformation
  Transformation of IIII integrals :
  1 pass through the AO integral file was required.
     4587106 AO integrals were read.
     8830716 MO integrals were written to HF2.
  Transformation of IIJJ integrals :
  1 pass through the AO integral file was required.
    10378887 AO integrals were read.
    14633512 MO integrals were written to HF2.
  Transformation of IJIJ integrals :
  1 pass through the AO integral file was required.
    19695621 AO integrals were read.
    27533968 MO integrals were written to HF2.
  Transformation of IJKL integrals :
  1 pass through the AO integral file was required.
    14572675 AO integrals were read.
    18612717 MO integrals were written to HF2.
  Summary of active molecular orbitals: 
------------------------------------------------------------------------
 
  Index      Eigenvalue    Symmetry    Index      Eigenvalue    Symmetry
------------------------------------------------------------------------
     1       -20.6658048        1       110         4.2093441        2
     2       -11.3693118        1       111         4.2626627        2
     3        -1.5079283        1       112         4.7692741        2
     4        -0.8029206        1       113         5.0997705        2
     5        -0.5569452        1       114         5.7934496        2
     6        -0.6317234        2       115         6.1173184        2
     7        -0.6317234        3       116         6.3228609        2
     8         0.0600207        1       117         6.4398678        2
     9         0.0753121        1       118         7.4461607        2
    10         0.1560139        1       119         8.4276161        2
    11         0.2280705        1       120        10.1223531        2
    12         0.2281074        1       121        10.8690841        2
    13         0.3013327        1       122        11.3621099        2
    14         0.3914672        1       123        11.8549148        2
    15         0.5082270        1       124        12.6167540        2
    16         0.5357796        1       125        14.0776784        2
    17         0.6391133        1       126        19.3757356        2
    18         0.7680756        1       127        26.9865080        2
    19         0.7794155        1       128        33.7890095        2
    20         0.8711304        1       129        47.6722262        2
    21         0.8900345        1       130        66.8249752        2
    22         0.9006702        1       131        98.6672622        2
    23         1.1814360        1       132        98.7540495        2
    24         1.4663871        1       133       103.2836637        2
    25         1.5206519        1       134       103.3597281        2
    26         1.6674874        1       135       115.4042848        2
    27         1.7664845        1       136       117.0389028        2
    28         1.7771922        1       137       198.8757714        2
    29         2.1044811        1       138       225.2400789        2
    30         2.1232868        1       139       395.4972145        2
    31         2.1920739        1       140         0.0625381        3
    32         2.3142765        1       141         0.1362985        3
    33         2.3616012        1       142         0.1661844        3
    34         2.4836379        1       143         0.3190808        3
    35         2.9146549        1       144         0.3955211        3
    36         2.9925288        1       145         0.6234191        3
    37         3.4798513        1       146         0.7486026        3
    38         3.7201470        1       147         0.8213103        3
    39         3.9399632        1       148         0.8826185        3
    40         4.1778868        1       149         1.0726081        3
    41         4.2661639        1       150         1.4460019        3
    42         4.3731358        1       151         1.5566676        3
    43         4.5037728        1       152         1.7900421        3
    44         5.0397748        1       153         1.9775567        3
    45         5.1395945        1       154         2.2504198        3
    46         5.7810687        1       155         2.3212196        3
    47         5.8981506        1       156         2.3559833        3
    48         6.2357862        1       157         2.5938534        3
    49         6.2994657        1       158         2.8139468        3
    50         6.5809541        1       159         3.7442321        3
    51         7.0115347        1       160         4.0843791        3
    52         7.2753250        1       161         4.2093441        3
    53         7.7627064        1       162         4.2626627        3
    54         8.2058345        1       163         4.7692741        3
    55        10.5659243        1       164         5.0997705        3
    56        10.6028255        1       165         5.7934496        3
    57        11.1175271        1       166         6.1173184        3
    58        11.1298949        1       167         6.3228609        3
    59        11.5442629        1       168         6.4398678        3
    60        12.2725292        1       169         7.4461607        3
    61        12.8648232        1       170         8.4276161        3
    62        13.2438968        1       171        10.1223531        3
    63        15.4814324        1       172        10.8690841        3
    64        18.0210047        1       173        11.3621099        3
    65        20.6244972        1       174        11.8549148        3
    66        26.5185724        1       175        12.6167540        3
    67        28.1563871        1       176        14.0776784        3
    68        34.9592924        1       177        19.3757356        3
    69        36.7525522        1       178        26.9865080        3
    70        47.1181361        1       179        33.7890095        3
    71        48.5378119        1       180        47.6722262        3
    72        64.2035477        1       181        66.8249752        3
    73        67.7950683        1       182        98.6672622        3
    74        98.6885360        1       183        98.7540495        3
    75        98.7660625        1       184       103.2836637        3
    76       103.3318469        1       185       103.3597281        3
    77       103.4169562        1       186       115.4042848        3
    78       115.1755198        1       187       117.0389028        3
    79       116.0011157        1       188       198.8757714        3
    80       118.0082721        1       189       225.2400789        3
    81       122.8804039        1       190       395.4972145        3
    82       198.5762643        1       191         0.2281074        4
    83       199.3078452        1       192         0.5357796        4
    84       216.6826926        1       193         0.7680756        4
    85       226.0359307        1       194         0.8900345        4
    86       396.3017750        1       195         1.5206519        4
    87       509.4248495        1       196         1.7664845        4
    88       895.5123499        1       197         2.1044811        4
    89         0.0625381        2       198         2.1920739        4
    90         0.1362985        2       199         2.3616012        4
    91         0.1661844        2       200         2.9925288        4
    92         0.3190808        2       201         3.7201470        4
    93         0.3955211        2       202         4.1778868        4
    94         0.6234191        2       203         4.3731358        4
    95         0.7486026        2       204         5.1395945        4
    96         0.8213103        2       205         5.8981506        4
    97         0.8826185        2       206         6.2994657        4
    98         1.0726081        2       207         6.5809541        4
    99         1.4460019        2       208         7.2753250        4
   100         1.5566676        2       209        10.6028255        4
   101         1.7900421        2       210        11.1175271        4
   102         1.9775567        2       211        12.2725292        4
   103         2.2504198        2       212        12.8648232        4
   104         2.3212196        2       213        26.5185724        4
   105         2.3559833        2       214        47.1181361        4
   106         2.5938534        2       215        98.6885360        4
   107         2.8139468        2       216       103.3318469        4
   108         3.7442321        2       217       115.1755198        4
   109         4.0843791        2       218       198.5762643        4
------------------------------------------------------------------------
  -20.6658048493105       -11.3693117968717       -1.50792827950410     
 -0.802920559756343      -0.556945247424966      -0.631723355423638     
 -0.631723355423619       6.002072811037563E-002  7.531212138292644E-002
  0.156013907725483       0.228070526585054       0.228107361798023     
  0.301332690447477       0.391467197908969       0.508227014057734     
  0.535779616609717       0.639113318261058       0.768075560479438     
  0.779415496760873       0.871130402699827       0.890034545307749     
  0.900670160004085        1.18143601521593        1.46638706189560     
   1.52065194572276        1.66748739692028        1.76648453818062     
   1.77719223103890        2.10448111423628        2.12328675580019     
   2.19207392820481        2.31427647301693        2.36160124556056     
   2.48363789279764        2.91465485315382        2.99252882930457     
   3.47985128219025        3.72014702186301        3.93996319750498     
   4.17788675125354        4.26616392666838        4.37313582546152     
   4.50377284838257        5.03977475243616        5.13959453388602     
   5.78106870328696        5.89815056717896        6.23578624358693     
   6.29946574386114        6.58095414285368        7.01153474939431     
   7.27532504238970        7.76270639150340        8.20583449355620     
   10.5659243054762        10.6028255453806        11.1175270867557     
   11.1298949344636        11.5442628683200        12.2725292322351     
   12.8648232370238        13.2438968074270        15.4814324135788     
   18.0210046908152        20.6244972388854        26.5185723801754     
   28.1563870640229        34.9592924366434        36.7525521933659     
[...]
 Convergence information after     9 iterations: 
 Largest element of residual vector : -0.94767248E-05.
 Largest element of DIIS residual   :  0.48900070E-05.
 Convergence information after    10 iterations: 
 Largest element of residual vector :  0.57187505E-05.
 Largest element of DIIS residual   :  0.38814115E-05.
 Convergence information after    11 iterations: 
 Largest element of residual vector :  0.22847924E-05.
 Largest element of DIIS residual   :  0.79076778E-06.
 Convergence information after    12 iterations: 
 Largest element of residual vector :  0.93793608E-06.
 Largest element of DIIS residual   :  0.43111853E-06.
 Convergence information after    13 iterations: 
 Largest element of residual vector :  0.33245064E-06.
 Largest element of DIIS residual   :  0.20870796E-06.
 Convergence information after    14 iterations: 
 Largest element of residual vector :  0.16946725E-06.
 Largest element of DIIS residual   :  0.86452006E-07.
 Perturbed amplitude equations converged in    14 iterations.
  Dominant contributions to perturbed wavefunction:
    7    7  141   28   0.2265104302 ABAB
    7    7   28  141   0.2265104302 ABAB
    7    7  141   37   0.2052980528 ABAB
    7    7   37  141   0.2052980528 ABAB
    7    7  141   55   0.1763174106 ABAB
    7    7   55  141   0.1763174106 ABAB
    7    7  141   53  -0.1497399354 ABAB
    7    7   53  141  -0.1497399354 ABAB
    7    6   28   90   0.1485813174 ABAB
    6    7   90   28   0.1485813174 ABAB
    7    7  142   28   0.1464453029 ABAB
    7    7   28  142   0.1464453029 ABAB
    5    5  141   44   0.1432521715 ABAB
    5    5   44  141   0.1432521715 ABAB
    7    7  141   39   0.1423749850 ABAB
    7    7   39  141   0.1423749850 ABAB
    7    7  141   44   0.1417759936 ABAB
    7    7   44  141   0.1417759936 ABAB
    7    6   37   90   0.1349907275 ABAB
    6    7   90   37   0.1349907275 ABAB
  norm of converged amps    2.39883257877702     
 Starting iterative solution of the perturbed Lambda equations.
 The DIIS procedure is used to accelerate convergence.
 Convergence criterion is 10**(-7).
 Maximum number of iterations is 100.
 Convergence information after     1 iterations: 
 Largest element of residual vector : -0.67854406E-01.
 Largest element of DIIS residual   : -0.67854406E-01.
 Convergence information after     2 iterations: 
 Largest element of residual vector :  0.79239118E-02.
 Largest element of DIIS residual   :  0.49916692E-02.
 Convergence information after     3 iterations: 
 Largest element of residual vector : -0.46156185E-02.
 Largest element of DIIS residual   : -0.40210099E-02.
 Convergence information after     4 iterations: 
 Largest element of residual vector : -0.28596218E-02.
 Largest element of DIIS residual   : -0.22764224E-02.
 Convergence information after     5 iterations: 
 Largest element of residual vector : -0.17002770E-02.
 Largest element of DIIS residual   : -0.80179028E-03.
 Convergence information after     6 iterations: 
 Largest element of residual vector : -0.55909409E-03.
 Largest element of DIIS residual   :  0.13376202E-03.
 Convergence information after     7 iterations: 
 Largest element of residual vector : -0.11262967E-03.
 Largest element of DIIS residual   : -0.48588081E-04.
 Convergence information after     8 iterations: 
 Largest element of residual vector : -0.22190298E-04.
 Largest element of DIIS residual   :  0.21533838E-04.
 Convergence information after     9 iterations: 
 Largest element of residual vector :  0.74939369E-05.
 Largest element of DIIS residual   : -0.47849236E-05.
 Convergence information after    10 iterations: 
 Largest element of residual vector :  0.45651560E-05.
 Largest element of DIIS residual   :  0.33310944E-05.
 Convergence information after    11 iterations: 
 Largest element of residual vector :  0.17759321E-05.
 Largest element of DIIS residual   :  0.73602809E-06.
 Convergence information after    12 iterations: 
 Largest element of residual vector :  0.83904691E-06.
 Largest element of DIIS residual   :  0.55193113E-06.
 Convergence information after    13 iterations: 
 Largest element of residual vector :  0.41247743E-06.
 Largest element of DIIS residual   :  0.30222496E-06.
 Convergence information after    14 iterations: 
 Largest element of residual vector :  0.23837785E-06.
 Largest element of DIIS residual   :  0.11872099E-06.
 Convergence information after    15 iterations: 
 Largest element of residual vector :  0.81687838E-07.
 Largest element of DIIS residual   :  0.37560027E-07.
 Perturbed Lambda equations converged in    15 iterations.
  Dominant contributions to perturbed wavefunction:
    7    7  141   28   0.2130305755 ABAB
    7    7   28  141   0.2130305755 ABAB
    7    7  141   37   0.1941879396 ABAB
    7    7   37  141   0.1941879396 ABAB
    7    7  141   55   0.1642462537 ABAB
    7    7   55  141   0.1642462537 ABAB
    7    7  141   53  -0.1403997557 ABAB
    7    7   53  141  -0.1403997557 ABAB
    7    7  142   28   0.1395255417 ABAB
    7    7   28  142   0.1395255417 ABAB
    7    6   28   90   0.1377142811 ABAB
    6    7   90   28   0.1377142811 ABAB
    5    5  141   44   0.1374090081 ABAB
    5    5   44  141   0.1374090081 ABAB
    7    7  141   39   0.1326358443 ABAB
    7    7   39  141   0.1326358443 ABAB
    7    7  141   44   0.1304542140 ABAB
    7    7   44  141   0.1304542140 ABAB
    7    6   37   90   0.1260843223 ABAB
    6    7   90   37   0.1260843223 ABAB
        The DBOC first-order density matrix is being calculated 
             (Symmetry block 3, perturbation   2)
 term   6.72737533921074     
 final tnorm  0.884925722198188     
  norm contr. I: |<0|L dT/dx|0>|^2   0.000000000000000E+000
  norm contr. II: <0|[nabla(1+L)e-T][nabla e^T]|0>   6.72737533921074     
  total norm contribution   6.72737533921074     
 oo  1.025469283768770E-002
 vv  -44.8739287245794     
 vo  4.219371910030156E-002
  Correlated perturbed 1-el contribution to DBOC  -44.8214803126414       cm**-1
  SUM_I |dc_I/dx|^2 contribution to DBOC   22.5057531270503       cm**-1
 
 
  The total diagonal Born-Oppenheimer correction (DBOC) is:      0.0038704354 a.u.
  The total diagonal Born-Oppenheimer correction (DBOC) is:        849.462391 cm-1
 
 Total CC energy including DBOC  -113.280480997422     
 First-order density matrix is being calculated  (Symmetry block 3, perturbation   2)
 Calculation of the contributions of <pq||rs> to dI(i,j)/dx required   3.1 seconds.
 Calculation of the contributions of <pq||rs> to dI(a,b)/dx required  16.5 seconds.
 Calculation of the contributions of <pq||rs> to dI(i,a)/dx required   9.7 seconds.
 First-order Z-vector equations are solved for 1 perturbation.
 Convergence reached after  18 iterations.
        U*G(pq,rs) contribution is being calculated
             (Symmetry block 3, perturbation   2)

 CCSD contribution to force constants 

        0.0000000000        0.0000000000        0.0000000000
        0.0000000000        0.0000000000        0.0000000000
        0.0000000000        0.0000000000        0.0000000000
        0.0000000000        0.0000000000        0.0000000000
        0.0000000000        0.0000000000        0.0000000000
        0.0000000000        0.0000000000        0.0000000000
        0.0000000000        0.0000000000        0.0000000000
        0.0000000000        0.0000000000        0.0000000000
        0.0000000000        0.0000000000        0.0000000000
        0.0000000000        0.0000000000        0.0000000000
        0.0000000000        0.0000000000        0.0000000000
        0.0000000000       -1.1225096525        1.1225096525

 CCSD contribution to dipole derivatives 

        0.0000000000        0.0000000000        0.0000000000
        0.0000000000        0.0000000000        0.0000000000
        0.0000000000        0.0000000000        0.0000000000
        0.0000000000        0.0000000000       -0.0453614590
        0.0000000000        0.0000000000        0.0000000000
        0.0000000000        0.0000000000        0.0000000000
 @CHECKOUT-I, Total execution time (CPU/WALL):     1143.36/     471.22 seconds.
--executable xsdcc finished with status     0 in      471.45 seconds (walltime).
 --invoking executable--
/nfs/workspaces/public/cfour_mpi/bin/xanti
 @GETMEM-I,  Allocated    3814 MB of main memory.
 CCSD MO derivative gammas will be sorted to Mulliken order.
 @CHECKOUT-I, Total execution time (CPU/WALL):       14.06/      37.29 seconds.
--executable xanti finished with status     0 in       37.47 seconds (walltime).
 --invoking executable--
/nfs/workspaces/public/cfour_mpi/bin/xbcktrn
 @GETMEM-I,  Allocated    3814 MB of main memory.
 CCSD MO derivative gammas will be transformed to the AO basis.
 @CHECKOUT-I, Total execution time (CPU/WALL):       24.07/       9.61 seconds.
--executable xbcktrn finished with status     0 in        9.67 seconds (walltime).
 --invoking executable--
/nfs/workspaces/public/cfour_mpi/bin/xvdint
 @GETMEM-I,  Allocated    3814 MB of main memory.
 One- and two-electron integral derivatives are calculated
 for RHF-CC/MBPT hessians and dipole derivatives.
 Spherical gaussians are used.
  magnet F F
                    8722  records have been written to the Sort file.
  Total length of Sort file :             178609116  words.
 Evaluation of 2el integral derivatives

                      Two-electron integral gradient
                      ------------------------------

                         C #1 z     0.0000000000
                         O #2 z     0.0000000000


 C #1       0.0000000000           -0.5752000888            0.0000000000
 O #2       0.0000000000            0.5752000888            0.0000000000


 Evaluation of 2e integral derivatives required  361.09 seconds.
  contribution to Hessian
        0.0000000000        0.0000000000        0.0000000000
        0.0000000000       -0.5752000888        0.5752000888
 @CHECKOUT-I, Total execution time (CPU/WALL):      361.08/      83.76 seconds.
--executable xvdint finished with status     0 in       83.95 seconds (walltime).
 --invoking executable--
/nfs/workspaces/public/cfour_mpi/bin/xanti
 @GETMEM-I,  Allocated    3814 MB of main memory.
 CCSD MO gammas will be sorted to Mulliken order.
 @CHECKOUT-I, Total execution time (CPU/WALL):       17.61/      58.95 seconds.
--executable xanti finished with status     0 in       59.13 seconds (walltime).
 --invoking executable--
/nfs/workspaces/public/cfour_mpi/bin/xbcktrn
 @GETMEM-I,  Allocated    3814 MB of main memory.
 CCSD MO gammas will be transformed to the AO basis.
 @CHECKOUT-I, Total execution time (CPU/WALL):       52.80/      10.01 seconds.
--executable xbcktrn finished with status     0 in       10.07 seconds (walltime).
 --invoking executable--
/nfs/workspaces/public/cfour_mpi/bin/xvdint
 @GETMEM-I,  Allocated    3814 MB of main memory.
 One- and two-electron integral derivatives are calculated
 for RHF-CC/MBPT hessians and dipole derivatives.
 Spherical gaussians are used.
  magnet F F

                     Kinetic energy integral gradient
                     --------------------------------

                         C #1 z    -1.4457972443
                         O #2 z     1.4457972443


 C #1       0.0000000000            0.0000000000           -1.4457972443
 O #2       0.0000000000            0.0000000000            1.4457972443



                   Nuclear attraction integral gradient
                   ------------------------------------

                         C #1 z    23.1470164777
                         O #2 z   -23.1470164777


 C #1       0.0000000000            0.0000000000           23.1470164777
 O #2       0.0000000000            0.0000000000          -23.1470164777



                      Reorthonormalization gradient
                      -----------------------------

                         C #1 z     0.0000000000
                         O #2 z     0.0000000000


 C #1       0.0000000000            0.0000000000            0.0000000000
 O #2       0.0000000000            0.0000000000            0.0000000000



                     Kinetic energy integral Hessian
                     -------------------------------


           Symmetry 1

           C #1 z      O #2 z

 C #1 z    1.097864
 O #2 z   -1.097864    1.097864


           Symmetry 2

           C #1 x      O #2 x

 C #1 x   -1.867648
 O #2 x    1.867648   -1.867648


           Symmetry 3

           C #1 y      O #2 y

 C #1 y   -1.867648
 O #2 y    1.867648   -1.867648




           C #1 x      C #1 y      C #1 z      O #2 x      O #2 y      O #2 z

 C #1 x   -1.867648
 C #1 y    0.000000   -1.867648
 C #1 z    0.000000    0.000000    1.097864

 O #2 x    1.867648    0.000000    0.000000   -1.867648
 O #2 y    0.000000    1.867648    0.000000    0.000000   -1.867648
 O #2 z    0.000000    0.000000   -1.097864    0.000000    0.000000    1.097864




                   Nuclear attraction integral Hessian
                   -----------------------------------


           Symmetry 1

           C #1 z      O #2 z

 C #1 z  -13.225093
 O #2 z   13.225093  -13.225093


           Symmetry 2

           C #1 x      O #2 x

 C #1 x   20.205050
 O #2 x  -20.205050   20.205050


           Symmetry 3

           C #1 y      O #2 y

 C #1 y   20.205050
 O #2 y  -20.205050   20.205050




           C #1 x      C #1 y      C #1 z      O #2 x      O #2 y      O #2 z

 C #1 x   20.205050
 C #1 y    0.000000   20.205050
 C #1 z    0.000000    0.000000  -13.225093

 O #2 x  -20.205050    0.000000    0.000000   20.205050
 O #2 y    0.000000  -20.205050    0.000000    0.000000   20.205050
 O #2 z    0.000000    0.000000   13.225093    0.000000    0.000000  -13.225093




                Highest order reorthonormalization Hessian
                ------------------------------------------


           Symmetry 1

           C #1 z      O #2 z

 C #1 z    0.000000
 O #2 z    0.000000    0.000000


           Symmetry 2

           C #1 x      O #2 x

 C #1 x    0.000000
 O #2 x    0.000000    0.000000


           Symmetry 3

           C #1 y      O #2 y

 C #1 y    0.000000
 O #2 y    0.000000    0.000000




           C #1 x      C #1 y      C #1 z      O #2 x      O #2 y      O #2 z




                Electronic contributions to dipole moment
                -----------------------------------------

                               au             Debye

                    z     -0.88913864     -2.25996540

  Conversion factor used: 1 a.u. =   2.54174691 Debye 



   Electronic contributions to static part of dipole moment derivatives
   --------------------------------------------------------------------


                     Total dipole moment derivatives
                     -------------------------------


           Symmetry 1
                              Ez

               C #1 z    -5.70196597
               O #2 z    -8.29803403

           Symmetry 2
                              Ex

               C #1 x    -5.78514302
               O #2 x    -8.21485698

           Symmetry 3
                              Ey

               C #1 y    -5.78514302
               O #2 y    -8.21485698



                       Ex          Ey          Ez

      C #1    x   -5.785143    0.000000    0.000000
      C #1    y    0.000000   -5.785143    0.000000
      C #1    z    0.000000    0.000000   -5.701966

      O #2    x   -8.214857    0.000000    0.000000
      O #2    y    0.000000   -8.214857    0.000000
      O #2    z    0.000000    0.000000   -8.298034

 Evaluation of 1e integral derivatives required    1.69 seconds.
                    8815  records have been written to the Sort file.
  Total length of Sort file :             180513570  words.
 Evaluation of 2el integral derivatives

                      Two-electron integral gradient
                      ------------------------------

                         C #1 z   -11.0087765750
                         O #2 z    11.0087765750


 C #1       0.0000000000            0.0000000000          -11.0087765750
 O #2       0.0000000000            0.0000000000           11.0087765750


 Evaluation of 2e integral derivatives required  706.34 seconds.

                            Molecular gradient
                            ------------------

                         C #1 z     0.4982966394
                         O #2 z    -0.4982966394


 C #1       0.0000000000            0.0000000000            0.4982966394
 O #2       0.0000000000            0.0000000000           -0.4982966394


  Molecular gradient norm 0.705E+00

                            Molecular hessian
                            -----------------


           Symmetry 1

           C #1 z      O #2 z

 C #1 z   62.426501
 O #2 z  -62.426501   62.426501


           Symmetry 2

           C #1 x      O #2 x

 C #1 x    1.837072
 O #2 x   -1.837072    1.837072


           Symmetry 3

           C #1 y      O #2 y

 C #1 y    1.837072
 O #2 y   -1.837072    1.837072




           C #1 x      C #1 y      C #1 z      O #2 x      O #2 y      O #2 z

 C #1 x    1.837072
 C #1 y    0.000000    1.837072
 C #1 z    0.000000    0.000000   62.426501

 O #2 x   -1.837072    0.000000    0.000000    1.837072
 O #2 y    0.000000   -1.837072    0.000000    0.000000    1.837072
 O #2 z    0.000000    0.000000  -62.426501    0.000000    0.000000   62.426501




                           Total dipole moment
                           -------------------

                               au             Debye

                    z     -0.02150784     -0.05466748

  Conversion factor used: 1 a.u. =   2.54174691 Debye 



                     Total dipole moment derivatives
                     -------------------------------


           Symmetry 1
                              Ez

               C #1 z     0.71772427
               O #2 z    -0.71772427

           Symmetry 2
                              Ex

               C #1 x    -0.01283005
               O #2 x     0.01283005

           Symmetry 3
                              Ey

               C #1 y    -0.01283005
               O #2 y     0.01283005



                       Ex          Ey          Ez

      C #1    x   -0.012830    0.000000    0.000000
      C #1    y    0.000000   -0.012830    0.000000
      C #1    z    0.000000    0.000000    0.717724

      O #2    x    0.012830    0.000000    0.000000
      O #2    y    0.000000    0.012830    0.000000
      O #2    z    0.000000    0.000000   -0.717724

 @CHECKOUT-I, Total execution time (CPU/WALL):      707.99/     136.98 seconds.
--executable xvdint finished with status     0 in      137.22 seconds (walltime).
 --invoking executable--
/nfs/workspaces/public/cfour_mpi/bin/xjoda
  @GTFLGS-I, Hessian will be transformed to curvilinear coordinates.
  @GTFLGS-I, Hessian will be transformed to curvilinear coordinates.
  igrd and ihes are                      0                     1
  gradient from JOBARC 
   0.000000000000000   0.000000000000000   0.498296639413918
   0.000000000000000   0.000000000000000  -0.498296639413918
 
  @PROJFCM-I, Projecting force constant matrix onto totally symmetric subspace.
  Largest difference between matrix elements of symmetrized
  and unsymmetrized FCM :    -0.1457012289E-10.
  read isotopes from ZMAT file 
 
  Summary of diagonal Born-Oppenheimer correction at the correlated level
  The total diagonal Born-Oppenheimer correction (DBOC) is:      0.0038704354 a.u.
  The total diagonal Born-Oppenheimer correction (DBOC) is:        849.462391 cm-1
  The total diagonal Born-Oppenheimer correction (DBOC) is:            10.162 kJ/mole
  hellooooooo 
  readis is  F
 
 @CHECKOUT-I, Total execution time (CPU/WALL):        0.01/       0.07 seconds.
--executable xjoda finished with status     0 in        0.12 seconds (walltime).
  The final electronic energy is      -113.280480997422444 a.u. 
  This computation required                         4217.10 seconds (walltime).
