 --invoking executable--
/nfs/workspaces/public/cfour_mpi/bin/xjoda


   *************************************************************************
         <<<     CCCCCC     CCCCCC   |||     CCCCCC     CCCCCC   >>>
       <<<      CCC        CCC       |||    CCC        CCC         >>>
      <<<      CCC        CCC        |||   CCC        CCC            >>>
    <<<        CCC        CCC        |||   CCC        CCC              >>>
      <<<      CCC        CCC        |||   CCC        CCC            >>>
       <<<      CCC        CCC       |||    CCC        CCC         >>>
         <<<     CCCCCC     CCCCCC   |||     CCCCCC     CCCCCC   >>>
   *************************************************************************

     ****************************************************************
     * CFOUR Coupled-Cluster techniques for Computational Chemistry *
     ****************************************************************
 

   Department of Chemistry                Institut fuer Physikalische Chemie
   University of Florida                  Universitaet Mainz
   Gainesville, FL 32611, USA             D-55099 Mainz, Germany

   Department of Chemistry                Fakultaet fuer Chemie und Biowiss.
   Johns Hopkins University               Karlsruher Institut fuer Technologie
   Baltimore, MD 21218, USA               D-76131 Karlsruhe, Germany

   Department of Chemistry                Department of Physical Chemistry
   Southern Methodist University          Eotvos Lorand University
   Dallas, TX 75275, USA                  H-1053 Budapest, Hungary

 
                       Version 2.1
 
                     vincent.theory.phys.ucl.ac.uk                     
                     Sun  2 Mar 22:25:10 GMT 2025                      
                     integer*8 version is running
 
********************************************************************************
*                          Input from ZMAT file                                *
********************************************************************************
Carbon Monoxide DBOC calculation                                                
C                                                                               
O 1 r                                                                           
                                                                                
r=1.4586206896551723                                                            
                                                                                
                                                                                
*CFOUR(CALC=CCSD,BASIS=AUG-PCVQZ,SCF_CONV=10                                    
CC_CONV=14,DBOC=ON,MEMORY=500000000                                             
ZFIELD=200)                                                                     
                                                                                
%isotopes                                                                       
12                                                                              
18                                                                              
********************************************************************************
  @GTFLGS-I, Hessian will be transformed to curvilinear coordinates.
    -------------------------------------------------------------------
                    CFOUR Control Parameters 
    -------------------------------------------------------------------
        External           Internal           Value            Units
          Name               Name
    -------------------------------------------------------------------
       ABCDTYPE             IABCDT         STANDARD    [  0]    ***   
       ANHARMONIC           IANHAR         OFF         [  0]    ***   
       ANH_ALGORIT          IANALG         STANDARD    [  0]    ***   
       ANH_DERIVAT          IANDER         SECOND      [  1]    ***   
       ANH_MODE             ANHMOD         VIBRATION   [  0]    ***   
       ANH_STEPSIZ          ICUBST             50000          x 10-6  
       ANH_SYMMETR          IANHSM         ABELIAN     [  0]    ***   
       AO_LADDERS           IAOLAD         SINGLEPASS  [  1]    ***   
       AV_SCF               IAVSCF         OFF         [  0]    ***   
       BASIS                IBASIS         AUG-PCVQZ   [ 52]    ***   
       BOTHVECTORS          BOTHVC         OFF         [  0]    ***   
       BOX_POTENT           IPIAB          OFF         [  0]    ***   
       BREIT                IBREIT         OFF         [  0]    ***   
       BRUCK_CONV           IBRTOL          10D-  4             ***   
       BRUECKNER            IBRKNR         OFF         [  0]    ***   
       BUFFERSIZE           IBUFFS              4096            ***   
       CACHE_RECS           ICHREC             10               ***   
       CALCLEVEL            ICLLVL         CCSD        [ 10]    ***   
       CCORBOPT             ICCORB         OFF         [  0]  x 0.01  
       CC_CONV              ICCCNV          10D- 14             ***   
       CC_EXPORDER          ICCEOR              5               ***   
       CC_EXTRAPOL          ICCEXT         DIIS        [  1]    ***   
       CC_GUESS             ICCGES         MP2         [  0]    ***   
       CC_MAXCYC            ICCCYC            100              cycles 
       CC_PROGRAM           ICCPRO         VCC         [  0]    ***   
       CHARGE               ICHRGE              0               ***   
       CHOLESKY             ICHOLE         OFF         [  0]    ***   
       CIS_CONV             ICISTL              5               ***   
       COMM_SIZE            IPSIZE            ***               ***   
       CONSTANT             ICONST         OLD         [  1]    ***   
       CONTINUUM            ICONTU         NONE        [  0]    ***   
       CONTRACTION          ICNTYP         GENERAL     [  1]    ***   
       COORDINATES          ICOORD         INTERNAL    [  0]    ***   
       CPHF_CONVER          ICPHFT          10D- 16             ***   
       CPHF_MAXCYC          ICPHFC             64              cycles 
       CUBIC                ICUBIC         OFF         [  0]    ***   
       CURVILINEAR          ICURVY         ON          [  1]    ***   
       DBOC                 IDBOC          ON          [  1]    ***   
       DCT                  IDCT           OFF         [  0]    ***   
       DERIV_LEV            IDRLVL         SECOND      [  2]    ***   
       DEVMEM_SIZE          IDVMEM          50000000           MByte  
       DIAG_MRCC            IEOMST          10D-  0             ***   
       DIFF_TYPE            IDIFTY         RELAXED     [  0]    ***   
       DIRECT               IDIRCT         OFF         [  0]    ***   
       DROPMO               IDRPMO      NONE         
       ECP                  IECP           OFF         [  0]    ***   
       EIGENVECTOR          IVEC                1               ***   
       EL_ANHARM            IELANH         OFF         [  0]    ***   
       EOMFOLLOW            IEOMSR         ENERGY      [  0]    ***   
       EOMIP                IEOMIP         OFF         [  0]    ***   
       EOMLEVEL             HBARFM         SAME        [  0]    ***   
       EOM_MRCC             IMRCCE         NEW         [  1]    ***   
       EOM_NONIT            EOMNON         OFF         [  0]    ***   
       EOM_NSING            IEOMSI          10D-  0             ***   
       EOM_NSTATES          IMRCCD         DAVIDSON    [  0]    ***   
       EOM_NTRIP            IEOMTR          10D-  0             ***   
       EOM_ORDER            IEXORD         ENERGY      [  0]    ***   
       EOM_PROPSTA          IEOMST              0               ***   
       ESTATE_CONV          IEXTOL          10D-  5             ***   
       ESTATE_DIAG          IEXDIG         ITERATIVE   [  0]    ***   
       ESTATE_LOCK          IESLOC         ON          [  1]    ***   
       ESTATE_MAXC          IEXMXC             40               ***   
       ESTATE_PROP          IEXPRP         OFF         [  0]    ***   
       EVAL_HESS            IRECAL              0            # of cyc.
       EXCITATION           IEXCIT              0               ***   
       EXCITE               IEXCIT         NONE        [  0]    ***   
       EXTERN_POT           IEXPOT         OFF         [  0]    ***   
       FCGRADNEW            IFCGNW         OFF         [  0]    ***   
       FC_FIELD             IFINFC              0             x 10-6  
       FD_CALTYPE           IFDCAL         GRADONLY    [  0]    ***   
       FD_PROJECT           IFDPRJ         OFF         [  1]    ***   
       FD_STEPSIZE          IDISFD              0            10-4 bohr
       FD_USEGROUP          IFDGRP         FULL        [  0]    ***   
       FILE_RECSIZ          IFLREC              4096           words  
       FINITE_PERT          IFIPER              0             x 10-6  
       FIXGEOM              IFIXGM         OFF         [  0]    ***   
       FOCK                 IFOCK          AO          [  1]    ***   
       FREQ_ALGORI          IVIALG         STANDARD    [  0]    ***   
       FROZEN_CORE          IFROCO         OFF         [  0]    ***   
       GAMMA_ABCD           IGABCD         STORE       [  0]    ***   
       GAMMA_ABCI           IGABCI         STORE       [  0]    ***   
       GENBAS_1             IGNBS1              0               ***   
       GENBAS_2             IGNBS2              0               ***   
       GENBAS_3             IGNBS3              0               ***   
       GENBAS_4             IGNBS4              0               ***   
       GEO_CONV             ICONTL              5              H/bohr 
       GEO_MAXCYC           IOPTCY             50               ***   
       GEO_MAXSTEP          IMXSTP            300            millibohr
       GEO_METHOD           INR            SINGLE_POINT[  5]    ***   
       GIAO                 IGIAO          OFF         [  1]    ***   
       GIMIC                IGIMIC         OFF         [  0]    ***   
       GRID                 IGRID          OFF         [  0]    ***   
       GRID_ALGO            IGALGO         SERIAL      [  0]    ***   
       GUESS                IGUESS         MOREAD      [  0]    ***   
       HBAR                 IHBAR          OFF         [  0]    ***   
       HESS_TYPE            IHESTP         SCF         [  0]    ***   
       HF2_FILE             IHF2Fl         USE         [  1]    ***   
       HFSTABILITY          ISTABL         OFF         [  0]    ***   
       INCORE               INCORE         OFF         [  0]    ***   
       INPUT_MRCC           IMRCC          ON          [  1]    ***   
       INTEGRALS            INTTYP         VMOL        [  1]    ***   
       JODA_PRINT           IJPRNT              0               ***   
       KEYWORD_OUT          IDMPKW         NO          [  0]    ***   
       LINDEP_TOL           ILINDP              8               ***   
       LINEQ_CONV           IZTACN          10D-  7           cycles  
       LINEQ_EXPOR          ILMAXD              5               ***   
       LINEQ_MAXCY          ILMAXC            100               ***   
       LINEQ_TYPE           ILTYPE         DIIS        [  1]    ***   
       LOCK_ORBOCC          ILOCOC         OFF         [  0]    ***   
       MEMORY_SIZE          IMEMSZ         500000000           words  
       MEM_UNIT             IMEMU          INTEGERWORDS[  0]    ***   
       MRCC                 IMRCCC         OFF         [  0]    ***   
       MULTIPLICTY          IMULTP              1               ***   
       NACOUPLING           IVCOUP         OFF         [  0]    ***   
       NEGEVAL              IDIE           ABORT       [  0]    ***   
       NEWNORM              INEWNO         OFF         [  0]    ***   
       NON-HF               INONHF         OFF         [  0]    ***   
       NTOP_TAMP            ITOPT2             15               ***   
       NUC_MODEL            INUCMO         POINT       [  0]    ***   
       OCCUPATION           IOCCU   ESTIMATED BY SCF 
       OPEN-SHELL           IOPEN          SPIN-ORBITAL[  0]    ***   
       OPTVIB               IOPTVB         OFF         [  0]    ***   
       ORBITALS             IORBTP         STANDARD    [  0]    ***   
       PARALLEL             IPARAL         ON          [  1]    ***   
       PARA_INT             IPINTS         ON          [  1]    ***   
       PARA_PRINT           IPPRIN              0               ***   
       PERT_ORB             IPTORB         STANDARD    [  0]    ***   
       POINTS               IGRDFD              0               ***   
       PRINT                IPRNT               0               ***   
       PROPS                IPROPS         OFF         [  0]    ***   
       PROP_INTEGR          IINTYP         INTERNAL    [  0]    ***   
       PSI                  IPSI           OFF         [  0]    ***   
       QC_ALG               IQCALG         FLM         [  0]    ***   
       QC_LINALG            IQCLIN         TRIDIAG     [  2]    ***   
       QC_MAXCYC            IQCMAX          10D-100           cycles  
       QC_MAXSCFCY          IQCMSC          10D- 15           cycles  
       QC_RTRUST            IQCRTR          10D-  0           x 10-3  
       QC_SKIPSCF           IQCSKI         OFF         [  0]    ***   
       QC_START             IQCSTA          10D-  1             ***   
       QRHFGUESS            IQGUES         OFF         [  0]    ***   
       QUARTIC              IQUART         OFF         [  0]    ***   
       RAMAN_INT            IRAMIN         OFF         [  0]    ***   
       RAMAN_ORB            IRAMRE         UNRELAXED   [  0]    ***   
       RDO                  IRDOFM         ON          [  1]    ***   
       REDUCE_REPR          REDREP         Ir          [  0]    ***   
       REFERENCE            IREFNC         RHF         [  0]    ***   
       RELATIVIST           IRELAT         OFF         [  0]    ***   
       RELAX_DENS           IRDENS         ON          [  1]    ***   
       RESET_FLAGS          IRESET         OFF         [  0]    ***   
       RESTART_CC           ICCRES         OFF         [  0]    ***   
       ROT_EVEC             ROTVEC              0               ***   
       SAVE_INTS            ISVINT         OFF         [  0]    ***   
       SCALE_ON             ISTCRT              0               ***   
       SCF_CONV             ISCFCV          10D- 10             ***   
       SCF_DAMPING          IDAMP               0             x 10-3  
       SCF_EXPORDE          IRPPOR              6               ***   
       SCF_EXPSTAR          IRPPLS              8               ***   
       SCF_EXTRAPO          IRPP           ON          [  1]    ***   
       SCF_MAXCYC           ISCFCY            150              cycles 
       SCF_NOSTOP           ISCFST         OFF         [  0]    ***   
       SCF_PRINT            ISCFPR              0               ***   
       SCF_PROG             ISCFPR         SCF         [  0]    ***   
       SD_FIELD             IFINSD              0             x 10-6  
       SOPERT               IPERSO         OFF         [  0]    ***   
       SPHERICAL            IDFGHI         ON          [  1]    ***   
       SPINORBIT            ISOCAL         OFF         [  0]    ***   
       SPINROTATIO          ISRCON         OFF         [  0]    ***   
       SPIN_FLIP            ISPFLP         OFF         [  0]    ***   
       SPIN_ORBIT           ISPORB         OFF         [  0]    ***   
       SPIN_SCAL            ISCSMP         OFF         [  0]    ***   
       STEEPSCALE           ISTPSC              1000          x 10-3  
       SUBGROUP             ISUBGP         DEFAULT     [  0]    ***   
       SUBGRPAXIS           ISBXYZ         X           [  0]    ***   
       SYMMETRY             ISYM           ON          [  0]    ***   
       SYM_CHECK            ISYMCK         OVERRIDE    [  1]    ***   
       T3_EXTRAPOL          IT3EXT         OFF         [  0]    ***   
       T4_EXTRAPOL          IT4EXP         OFF         [  0]    ***   
       TAMP_SUM             IEVERY              5               ***   
       TESTSUITE            ITESTS         OFF         [  0]    ***   
       THERMOCH             ITHERM         OFF         [  0]    ***   
       TOL_CHOLESK          ITOLCH          10D-  4             ***   
       TRANGRAD             IRESRM         OFF         [  0]    ***   
       TRANS_INV            ITRAIN         IGNORE      [  1]    ***   
       TREAT_PERT           ITREAT         SIMULTANEOUS[  0]    ***   
       TRIP_ALGORI          ITRALG         NORMAL      [  0]    ***   
       UIJ_THRESHO          IUIJTH              1               ***   
       UNITS                IUNITS         ANGSTROM    [  0]    ***   
       UNOS                 IUNOS          OFF         [  0]    ***   
       UPDATE_HESS          IHUPDT         ON          [  1]    ***   
       VIBPHASE             ISETPH         STANDARD    [  0]    ***   
       VIBRATION            IVIB           ANALYTIC    [  1]    ***   
       VIB_ALGORIT          IGEALG         STANDARD    [  0]    ***   
       VNATORB              IVNORB         OFF         [  0]    ***   
       VTRAN                IVTRAN         FULL/PARTIAL[  0]    ***   
       XFIELD               IXEFLD              0             x 10-6  
       XFORM_TOL            IXFTOL          10D- 11             ***   
       YFIELD               IYEFLD              0             x 10-6  
       ZFIELD               IZEFLD            200             x 10-6  
       ZSCALE_EXP           IZEXPS         OFF         [  0]    ***   
    -------------------------------------------------------------------
   2 entries found in Z-matrix 
   Job Title : Carbon Monoxide DBOC calculation                                                
   There are  1 unique internal coordinates.
   Of these,  0 will be optimized.
   User supplied Z-matrix: 
--------------------------------------------------------------------------------
       SYMBOL    BOND      LENGTH    ANGLE     ANGLE     DIHED     ANGLE
                  TO      (ANGST)    WRT      (DEG)      WRT      (DEG)
--------------------------------------------------------------------------------
        C    
        O          1         r    
                  *Initial values for internal coordinates* 
                      Name             Value
                        r               1.4586206897
--------------------------------------------------------------------------------
  read isotopes from ZMAT file 
   Rotational constants (in cm-1): 
          1.1004933537             1.1004933537
   Rotational constants (in MHz): 
      32991.9653732178         32991.9653732178
********************************************************************************
   The full molecular point group is CXv .
   The largest Abelian subgroup of the full molecular point group is C2v .
   The computational point group is C2v .
********************************************************************************
--------------------------------------------------------------------------------
   Analysis of internal coordinates specified by Z-matrix 
--------------------------------------------------------------------------------
   *The nuclear repulsion energy is   17.414054921985816 a.u.
   *There is   1 degree of freedom within the tot. symm. molecular subspace.
   *Z-matrix requests optimization of   0 coordinates.
   *The optimization is constrained.
   *The following   1 parameters can have non-zero 
    derivatives within the totally symmetric subspace:
             r    [ 1]
   *The following   0 parameters are to be optimized:

   *The following coordinates must be varied in an  unconstrained optimization.
             r    [ 1]
--------------------------------------------------------------------------------


 ----------------------------------------------------------------
         Coordinates used in calculation (QCOMP) 
 ----------------------------------------------------------------
 Z-matrix   Atomic            Coordinates (in bohr)
  Symbol    Number           X              Y              Z
 ----------------------------------------------------------------
     C         6        -0.00000000     0.00000000     1.65380566
     O         8         0.00000000     0.00000000    -1.10258854
 ----------------------------------------------------------------
 
   Interatomic distance matrix (Angstroms) 
 
                 C             O    
                [ 1]        [ 2]
  C    [ 1]     0.00000
  O    [ 2]     1.45862     0.00000
 rotcon2
   Rotational constants (in cm-1): 
          1.1004933537             0.0000000000
   Rotational constants (in MHz): 
      32991.9653732178             0.0000000000
  ECPDATA file not present.   Using default ECPDATA. 
  @GTFLGS-I, Hessian will be transformed to curvilinear coordinates.
  There are  218 basis functions.
 @CHECKOUT-I, Total execution time (CPU/WALL):        0.18/       0.35 seconds.
--executable xjoda finished with status     0 in        0.37 seconds (walltime).
 --invoking executable--
/nfs/workspaces/public/cfour_mpi/bin/xvmol
 SERIAL VERSION OF MOLECULE STARTED
********************************************************************************
                    INPUT FROM MOL FILE
********************************************************************************
INTGRL        1    0    1    0    0    0    0    0    0                         
         *** CFOUR Program System (Release V0.1) ***                            
Carbon Monoxide DBOC calculation                                                
    2    2 X  Y       0.10E-08              0    0                              
   9999.00      3.00                                                            
          6.00000000    1    5    1    1    1    1    1                         
C #1  -0.000000000000000   0.000000000000000   1.653805659048270                
   16    9                                                                      
   33980.0000000000       9.100000000000000E-005 -1.900000000000000E-005        
  0.000000000000000E+000  0.000000000000000E+000  0.000000000000000E+000        
  0.000000000000000E+000  0.000000000000000E+000  0.000000000000000E+000        
  0.000000000000000E+000                                                        
   5089.00000000000       7.040000000000000E-004 -1.510000000000000E-004        
  0.000000000000000E+000  0.000000000000000E+000  0.000000000000000E+000        
  0.000000000000000E+000  0.000000000000000E+000  0.000000000000000E+000        
  0.000000000000000E+000                                                        
   1157.00000000000       3.693000000000000E-003 -7.850000000000000E-004        
  0.000000000000000E+000  0.000000000000000E+000  0.000000000000000E+000        
  0.000000000000000E+000  0.000000000000000E+000  0.000000000000000E+000        
  0.000000000000000E+000                                                        
   326.600000000000       1.536000000000000E-002 -3.324000000000000E-003        
  0.000000000000000E+000  0.000000000000000E+000  0.000000000000000E+000        
  0.000000000000000E+000  0.000000000000000E+000  0.000000000000000E+000        
  0.000000000000000E+000                                                        
   106.100000000000       5.292900000000000E-002 -1.151200000000000E-002        
  0.000000000000000E+000  0.000000000000000E+000  0.000000000000000E+000        
  0.000000000000000E+000  0.000000000000000E+000  0.000000000000000E+000        
  0.000000000000000E+000                                                        
   38.1100000000000       0.147043000000000      -3.416000000000000E-002        
  0.000000000000000E+000  0.000000000000000E+000  0.000000000000000E+000        
  0.000000000000000E+000  0.000000000000000E+000  0.000000000000000E+000        
  0.000000000000000E+000                                                        
   14.7500000000000       0.305631000000000      -7.717300000000001E-002        
  0.000000000000000E+000  0.000000000000000E+000  0.000000000000000E+000        
  0.000000000000000E+000  0.000000000000000E+000  0.000000000000000E+000        
  0.000000000000000E+000                                                        
   6.03500000000000       0.399345000000000      -0.141493000000000             
  0.000000000000000E+000  0.000000000000000E+000  0.000000000000000E+000        
  0.000000000000000E+000  0.000000000000000E+000  0.000000000000000E+000        
  0.000000000000000E+000                                                        
   2.53000000000000       0.217051000000000      -0.118019000000000             
  0.000000000000000E+000  0.000000000000000E+000  0.000000000000000E+000        
  0.000000000000000E+000  0.000000000000000E+000  0.000000000000000E+000        
  0.000000000000000E+000                                                        
  0.735500000000000       1.589400000000000E-002  0.273806000000000             
   1.00000000000000       0.000000000000000E+000  0.000000000000000E+000        
  0.000000000000000E+000  0.000000000000000E+000  0.000000000000000E+000        
  0.000000000000000E+000                                                        
  0.290500000000000      -3.084000000000000E-003  0.586510000000000             
  0.000000000000000E+000   1.00000000000000       0.000000000000000E+000        
  0.000000000000000E+000  0.000000000000000E+000  0.000000000000000E+000        
  0.000000000000000E+000                                                        
  0.111100000000000       9.779999999999999E-004  0.285430000000000             
  0.000000000000000E+000  0.000000000000000E+000   1.00000000000000             
  0.000000000000000E+000  0.000000000000000E+000  0.000000000000000E+000        
  0.000000000000000E+000                                                        
   7.21600000000000       0.000000000000000E+000  0.000000000000000E+000        
  0.000000000000000E+000  0.000000000000000E+000  0.000000000000000E+000        
   1.00000000000000       0.000000000000000E+000  0.000000000000000E+000        
  0.000000000000000E+000                                                        
   19.5700000000000       0.000000000000000E+000  0.000000000000000E+000        
  0.000000000000000E+000  0.000000000000000E+000  0.000000000000000E+000        
  0.000000000000000E+000   1.00000000000000       0.000000000000000E+000        
  0.000000000000000E+000                                                        
   53.0730000000000       0.000000000000000E+000  0.000000000000000E+000        
  0.000000000000000E+000  0.000000000000000E+000  0.000000000000000E+000        
  0.000000000000000E+000  0.000000000000000E+000   1.00000000000000             
  0.000000000000000E+000                                                        
  4.145000000000000E-002  0.000000000000000E+000  0.000000000000000E+000        
  0.000000000000000E+000  0.000000000000000E+000  0.000000000000000E+000        
  0.000000000000000E+000  0.000000000000000E+000  0.000000000000000E+000        
   1.00000000000000                                                             
   10    8                                                                      
   34.5100000000000       5.378000000000000E-003  0.000000000000000E+000        
  0.000000000000000E+000  0.000000000000000E+000  0.000000000000000E+000        
  0.000000000000000E+000  0.000000000000000E+000  0.000000000000000E+000        
   7.91500000000000       3.613200000000000E-002  0.000000000000000E+000        
  0.000000000000000E+000  0.000000000000000E+000  0.000000000000000E+000        
  0.000000000000000E+000  0.000000000000000E+000  0.000000000000000E+000        
   2.36800000000000       0.142493000000000       0.000000000000000E+000        
  0.000000000000000E+000  0.000000000000000E+000  0.000000000000000E+000        
  0.000000000000000E+000  0.000000000000000E+000  0.000000000000000E+000        
  0.813200000000000       0.342150000000000        1.00000000000000             
  0.000000000000000E+000  0.000000000000000E+000  0.000000000000000E+000        
  0.000000000000000E+000  0.000000000000000E+000  0.000000000000000E+000        
  0.289000000000000       0.463864000000000       0.000000000000000E+000        
   1.00000000000000       0.000000000000000E+000  0.000000000000000E+000        
  0.000000000000000E+000  0.000000000000000E+000  0.000000000000000E+000        
  0.100700000000000       0.250028000000000       0.000000000000000E+000        
  0.000000000000000E+000   1.00000000000000       0.000000000000000E+000        
  0.000000000000000E+000  0.000000000000000E+000  0.000000000000000E+000        
   8.18200000000000       0.000000000000000E+000  0.000000000000000E+000        
  0.000000000000000E+000  0.000000000000000E+000   1.00000000000000             
  0.000000000000000E+000  0.000000000000000E+000  0.000000000000000E+000        
   24.1860000000000       0.000000000000000E+000  0.000000000000000E+000        
  0.000000000000000E+000  0.000000000000000E+000  0.000000000000000E+000        
   1.00000000000000       0.000000000000000E+000  0.000000000000000E+000        
   71.4940000000000       0.000000000000000E+000  0.000000000000000E+000        
  0.000000000000000E+000  0.000000000000000E+000  0.000000000000000E+000        
  0.000000000000000E+000   1.00000000000000       0.000000000000000E+000        
  3.218000000000000E-002  0.000000000000000E+000  0.000000000000000E+000        
  0.000000000000000E+000  0.000000000000000E+000  0.000000000000000E+000        
  0.000000000000000E+000  0.000000000000000E+000   1.00000000000000             
    6    6                                                                      
   1.84800000000000        1.00000000000000       0.000000000000000E+000        
  0.000000000000000E+000  0.000000000000000E+000  0.000000000000000E+000        
  0.000000000000000E+000                                                        
  0.649000000000000       0.000000000000000E+000   1.00000000000000             
  0.000000000000000E+000  0.000000000000000E+000  0.000000000000000E+000        
  0.000000000000000E+000                                                        
  0.228000000000000       0.000000000000000E+000  0.000000000000000E+000        
   1.00000000000000       0.000000000000000E+000  0.000000000000000E+000        
  0.000000000000000E+000                                                        
   8.65600000000000       0.000000000000000E+000  0.000000000000000E+000        
  0.000000000000000E+000   1.00000000000000       0.000000000000000E+000        
  0.000000000000000E+000                                                        
   33.2130000000000       0.000000000000000E+000  0.000000000000000E+000        
  0.000000000000000E+000  0.000000000000000E+000   1.00000000000000             
  0.000000000000000E+000                                                        
  7.660000000000000E-002  0.000000000000000E+000  0.000000000000000E+000        
  0.000000000000000E+000  0.000000000000000E+000  0.000000000000000E+000        
   1.00000000000000                                                             
    4    4                                                                      
   1.41900000000000        1.00000000000000       0.000000000000000E+000        
  0.000000000000000E+000  0.000000000000000E+000                                
  0.485000000000000       0.000000000000000E+000   1.00000000000000             
  0.000000000000000E+000  0.000000000000000E+000                                
   24.6940000000000       0.000000000000000E+000  0.000000000000000E+000        
   1.00000000000000       0.000000000000000E+000                                
  0.187000000000000       0.000000000000000E+000  0.000000000000000E+000        
  0.000000000000000E+000   1.00000000000000                                     
    2    2                                                                      
   1.01100000000000        1.00000000000000       0.000000000000000E+000        
  0.424000000000000       0.000000000000000E+000   1.00000000000000             
          8.00000000    1    5    1    1    1    1    1                         
O #2   0.000000000000000   0.000000000000000  -1.102588541787655                
   16    9                                                                      
   61420.0000000000       9.000000000000001E-005 -2.000000000000000E-005        
  0.000000000000000E+000  0.000000000000000E+000  0.000000000000000E+000        
  0.000000000000000E+000  0.000000000000000E+000  0.000000000000000E+000        
  0.000000000000000E+000                                                        
   9199.00000000000       6.980000000000001E-004 -1.590000000000000E-004        
  0.000000000000000E+000  0.000000000000000E+000  0.000000000000000E+000        
  0.000000000000000E+000  0.000000000000000E+000  0.000000000000000E+000        
  0.000000000000000E+000                                                        
   2091.00000000000       3.664000000000000E-003 -8.290000000000000E-004        
  0.000000000000000E+000  0.000000000000000E+000  0.000000000000000E+000        
  0.000000000000000E+000  0.000000000000000E+000  0.000000000000000E+000        
  0.000000000000000E+000                                                        
   590.900000000000       1.521800000000000E-002 -3.508000000000000E-003        
  0.000000000000000E+000  0.000000000000000E+000  0.000000000000000E+000        
  0.000000000000000E+000  0.000000000000000E+000  0.000000000000000E+000        
  0.000000000000000E+000                                                        
   192.300000000000       5.242300000000000E-002 -1.215600000000000E-002        
  0.000000000000000E+000  0.000000000000000E+000  0.000000000000000E+000        
  0.000000000000000E+000  0.000000000000000E+000  0.000000000000000E+000        
  0.000000000000000E+000                                                        
   69.3200000000000       0.145921000000000      -3.626100000000000E-002        
  0.000000000000000E+000  0.000000000000000E+000  0.000000000000000E+000        
  0.000000000000000E+000  0.000000000000000E+000  0.000000000000000E+000        
  0.000000000000000E+000                                                        
   26.9700000000000       0.305258000000000      -8.299200000000000E-002        
  0.000000000000000E+000  0.000000000000000E+000  0.000000000000000E+000        
  0.000000000000000E+000  0.000000000000000E+000  0.000000000000000E+000        
  0.000000000000000E+000                                                        
   11.1000000000000       0.398508000000000      -0.152090000000000             
  0.000000000000000E+000  0.000000000000000E+000  0.000000000000000E+000        
  0.000000000000000E+000  0.000000000000000E+000  0.000000000000000E+000        
  0.000000000000000E+000                                                        
   4.68200000000000       0.216980000000000      -0.115331000000000             
  0.000000000000000E+000  0.000000000000000E+000  0.000000000000000E+000        
  0.000000000000000E+000  0.000000000000000E+000  0.000000000000000E+000        
  0.000000000000000E+000                                                        
   1.42800000000000       1.759400000000000E-002  0.288979000000000             
   1.00000000000000       0.000000000000000E+000  0.000000000000000E+000        
  0.000000000000000E+000  0.000000000000000E+000  0.000000000000000E+000        
  0.000000000000000E+000                                                        
  0.554700000000000      -2.502000000000000E-003  0.586128000000000             
  0.000000000000000E+000   1.00000000000000       0.000000000000000E+000        
  0.000000000000000E+000  0.000000000000000E+000  0.000000000000000E+000        
  0.000000000000000E+000                                                        
  0.206700000000000       9.540000000000000E-004  0.277624000000000             
  0.000000000000000E+000  0.000000000000000E+000   1.00000000000000             
  0.000000000000000E+000  0.000000000000000E+000  0.000000000000000E+000        
  0.000000000000000E+000                                                        
   12.9740000000000       0.000000000000000E+000  0.000000000000000E+000        
  0.000000000000000E+000  0.000000000000000E+000  0.000000000000000E+000        
   1.00000000000000       0.000000000000000E+000  0.000000000000000E+000        
  0.000000000000000E+000                                                        
   34.9000000000000       0.000000000000000E+000  0.000000000000000E+000        
  0.000000000000000E+000  0.000000000000000E+000  0.000000000000000E+000        
  0.000000000000000E+000   1.00000000000000       0.000000000000000E+000        
  0.000000000000000E+000                                                        
   93.8810000000000       0.000000000000000E+000  0.000000000000000E+000        
  0.000000000000000E+000  0.000000000000000E+000  0.000000000000000E+000        
  0.000000000000000E+000  0.000000000000000E+000   1.00000000000000             
  0.000000000000000E+000                                                        
  6.959000000000000E-002  0.000000000000000E+000  0.000000000000000E+000        
  0.000000000000000E+000  0.000000000000000E+000  0.000000000000000E+000        
  0.000000000000000E+000  0.000000000000000E+000  0.000000000000000E+000        
   1.00000000000000                                                             
   10    8                                                                      
   63.4200000000000       6.044000000000000E-003  0.000000000000000E+000        
  0.000000000000000E+000  0.000000000000000E+000  0.000000000000000E+000        
  0.000000000000000E+000  0.000000000000000E+000  0.000000000000000E+000        
   14.6600000000000       4.179900000000000E-002  0.000000000000000E+000        
  0.000000000000000E+000  0.000000000000000E+000  0.000000000000000E+000        
  0.000000000000000E+000  0.000000000000000E+000  0.000000000000000E+000        
   4.45900000000000       0.161143000000000       0.000000000000000E+000        
  0.000000000000000E+000  0.000000000000000E+000  0.000000000000000E+000        
  0.000000000000000E+000  0.000000000000000E+000  0.000000000000000E+000        
   1.53100000000000       0.356731000000000        1.00000000000000             
  0.000000000000000E+000  0.000000000000000E+000  0.000000000000000E+000        
  0.000000000000000E+000  0.000000000000000E+000  0.000000000000000E+000        
  0.530200000000000       0.448309000000000       0.000000000000000E+000        
   1.00000000000000       0.000000000000000E+000  0.000000000000000E+000        
  0.000000000000000E+000  0.000000000000000E+000  0.000000000000000E+000        
  0.175000000000000       0.244940000000000       0.000000000000000E+000        
  0.000000000000000E+000   1.00000000000000       0.000000000000000E+000        
  0.000000000000000E+000  0.000000000000000E+000  0.000000000000000E+000        
   14.4750000000000       0.000000000000000E+000  0.000000000000000E+000        
  0.000000000000000E+000  0.000000000000000E+000   1.00000000000000             
  0.000000000000000E+000  0.000000000000000E+000  0.000000000000000E+000        
   42.7300000000000       0.000000000000000E+000  0.000000000000000E+000        
  0.000000000000000E+000  0.000000000000000E+000  0.000000000000000E+000        
   1.00000000000000       0.000000000000000E+000  0.000000000000000E+000        
   126.140000000000       0.000000000000000E+000  0.000000000000000E+000        
  0.000000000000000E+000  0.000000000000000E+000  0.000000000000000E+000        
  0.000000000000000E+000   1.00000000000000       0.000000000000000E+000        
  5.348000000000000E-002  0.000000000000000E+000  0.000000000000000E+000        
  0.000000000000000E+000  0.000000000000000E+000  0.000000000000000E+000        
  0.000000000000000E+000  0.000000000000000E+000   1.00000000000000             
    6    6                                                                      
   3.77500000000000        1.00000000000000       0.000000000000000E+000        
  0.000000000000000E+000  0.000000000000000E+000  0.000000000000000E+000        
  0.000000000000000E+000                                                        
   1.30000000000000       0.000000000000000E+000   1.00000000000000             
  0.000000000000000E+000  0.000000000000000E+000  0.000000000000000E+000        
  0.000000000000000E+000                                                        
  0.444000000000000       0.000000000000000E+000  0.000000000000000E+000        
   1.00000000000000       0.000000000000000E+000  0.000000000000000E+000        
  0.000000000000000E+000                                                        
   14.9270000000000       0.000000000000000E+000  0.000000000000000E+000        
  0.000000000000000E+000   1.00000000000000       0.000000000000000E+000        
  0.000000000000000E+000                                                        
   57.5440000000000       0.000000000000000E+000  0.000000000000000E+000        
  0.000000000000000E+000  0.000000000000000E+000   1.00000000000000             
  0.000000000000000E+000                                                        
  0.154000000000000       0.000000000000000E+000  0.000000000000000E+000        
  0.000000000000000E+000  0.000000000000000E+000  0.000000000000000E+000        
   1.00000000000000                                                             
    4    4                                                                      
   2.66600000000000        1.00000000000000       0.000000000000000E+000        
  0.000000000000000E+000  0.000000000000000E+000                                
  0.859000000000000       0.000000000000000E+000   1.00000000000000             
  0.000000000000000E+000  0.000000000000000E+000                                
   26.4830000000000       0.000000000000000E+000  0.000000000000000E+000        
   1.00000000000000       0.000000000000000E+000                                
  0.324000000000000       0.000000000000000E+000  0.000000000000000E+000        
  0.000000000000000E+000   1.00000000000000                                     
    2    2                                                                      
   1.84600000000000        1.00000000000000       0.000000000000000E+000        
  0.714000000000000       0.000000000000000E+000   1.00000000000000             
FINISH                                                                          
 
********************************************************************************
 ONE- AND TWO-ELECTRON INTEGRALS OVER SYMMETRY-ADAPTED AOS ARE CALCULATED.

  SPHERICAL HARMONICS ARE USED.
  
  INTEGRALS LESS THAN  0.10E-13 ARE NEGLECTED.

  NUCLEAR REPULSION ENERGY :   17.4140549220 A.U.
  @MOLECU-I, ONE ELECTRON INTEGRALS (CPU/WALL):        0.06/       0.08 SECONDS.
  @TWOEL-I,    4481996 INTEGRALS OF SYMMETRY TYPE  I I I I
  @TWOEL-I,   19326505 INTEGRALS OF SYMMETRY TYPE  I J I J
  @TWOEL-I,   10176632 INTEGRALS OF SYMMETRY TYPE  I I J J
  @TWOEL-I,   14299420 INTEGRALS OF SYMMETRY TYPE  I J K L
  @TWOEL-I, TOTAL NUMBER OF 2-E INTEGRALS   48284553.
  @MOLECU-I, TWO ELECTRON INTEGRALS (CPU/WALL):      225.13/      30.79 SECONDS.
 @CHECKOUT-I, Total execution time (CPU/WALL):      225.19/      30.89 seconds.

Running with 14 threads/proc

--executable xvmol finished with status     0 in       30.97 seconds (walltime).
 --invoking executable--
/nfs/workspaces/public/cfour_mpi/bin/xvmol2ja
 @GETMEM-I,  Allocated    3814 MB of main memory.
 @CHECKOUT-I, Total execution time (CPU/WALL):        0.20/       0.06 seconds.
--executable xvmol2ja finished with status     0 in        0.09 seconds (walltime).
 --invoking executable--
/nfs/workspaces/public/cfour_mpi/bin/xvprop
 @GETMEM-I,  Allocated    3814 MB of main memory.
   Property integrals will be calculated.
    --------------------------------------------------------------
                                   Property evaluated at 
    Property type                X             Y             Z
    --------------------------------------------------------------
    Dipole moment               ----          ----          ----  
    Quadrupole moment           ----          ----          ----  
    Octopole moment             ----          ----          ----  
    Relativisitic corr.         ----          ----          ----  
    Second moment            0.0000000     0.0000000     0.0000000
    Electron density         0.0000000     0.0000000     1.6538057
    Electron density         0.0000000     0.0000000    -1.1025885
    Field gradient           0.0000000     0.0000000     1.6538057
    Field gradient           0.0000000     0.0000000    -1.1025885
    Potential                0.0000000     0.0000000     1.6538057
    Potential                0.0000000     0.0000000    -1.1025885
    --------------------------------------------------------------
 @CHECKOUT-I, Total execution time (CPU/WALL):        1.30/       1.34 seconds.
--executable xvprop finished with status     0 in        1.40 seconds (walltime).
 --invoking executable--
/nfs/workspaces/public/cfour_mpi/bin/xvscf
  There are  218 functions in the AO basis.

  There are 4 irreducible representations.

       Irrep        # of functions
         1                 86
         2                 52
         3                 52
         4                 28


  Parameters for SCF calculation: 
        SCF reference function:  RHF  
  Maximum number of iterations:  150
     Full symmetry point group: CXv 
     Computational point group: C2v 
        Initial density matrix: MOREAD                 
     SCF convergence tolerance: 10**(-10)
  DIIS convergence acceleration:  ON
          Latest start for DIIS:   8
                     DIIS order:   6

  Memory information:    2523578 words required.
  Fock matrices are constructed from AO integral file.
 @GETMEM-I,  Allocated      19 MB of main memory.
  Initialization and symmetry analysis required      0.001 seconds.

  Adding electric field perturbation to one-electron Hamiltonian.
  Field direction     : Z
  Field strength      :  0.0002000 a.u.

  @INITGES-I, Occupancies from core Hamiltonian:

          Alpha population by irrep:   5    1    1    0
           Beta population by irrep:   5    1    1    0


 total no. of electrons in initial guess :  0.000000000000000E+000
  --------------------------------------------------------------------
  Iteration         Total Energy            Largest Density Difference
  --------------------------------------------------------------------
       0            17.413834496862375              0.0000000000D+00
   current occupation vector 
     5  1  1  0
     5  1  1  0
       1           -93.329904830768783              0.1752074422D+02
   current occupation vector 
     5  1  1  0
     5  1  1  0
       2           -98.299817634196373              0.1752070620D+02
   current occupation vector 
     5  1  1  0
     5  1  1  0
       3          -102.714913080145621              0.6212959529D+01
   current occupation vector 
     5  1  1  0
     5  1  1  0
       4           -97.744408763521605              0.6205615921D+01
   current occupation vector 
     5  1  1  0
     5  1  1  0
       5          -100.950530957105798              0.6644006544D+01
   current occupation vector 
     5  1  1  0
     5  1  1  0
       6           -96.328676465260273              0.6638961555D+01
   current occupation vector 
     5  1  1  0
     5  1  1  0
       7          -100.909194963264937              0.6743525343D+01
   current occupation vector 
     5  1  1  0
     5  1  1  0
       8           -96.267757052170609              0.6743758334D+01
   current occupation vector 
     5  1  1  0
     5  1  1  0
       9          -107.641512589835727              0.5298546331D+01
   current occupation vector 
     5  1  1  0
     5  1  1  0
      10          -109.459649961806605              0.9043585699D+00
   current occupation vector 
     5  1  1  0
     5  1  1  0
      11          -112.309107711601584              0.1598622451D+01
   current occupation vector 
     5  1  1  0
     5  1  1  0
      12          -112.617261342559559              0.5275784869D+00
   current occupation vector 
     5  1  1  0
     5  1  1  0
      13          -112.621264785890489              0.1130166756D+00
   current occupation vector 
     5  1  1  0
     5  1  1  0
      14          -112.622291349347378              0.4792572461D-01
   current occupation vector 
     5  1  1  0
     5  1  1  0
      15          -112.622364340674281              0.1436947227D-01
   current occupation vector 
     5  1  1  0
     5  1  1  0
      16          -112.622382234536659              0.7510851403D-02
   current occupation vector 
     5  1  1  0
     5  1  1  0
      17          -112.622386753429780              0.5085730320D-02
   current occupation vector 
     5  1  1  0
     5  1  1  0
      18          -112.622386897631188              0.9181289453D-03
   current occupation vector 
     5  1  1  0
     5  1  1  0
      19          -112.622386899053637              0.1070484574D-03
   current occupation vector 
     5  1  1  0
     5  1  1  0
      20          -112.622386899192790              0.1933581393D-04
   current occupation vector 
     5  1  1  0
     5  1  1  0
      21          -112.622386899195092              0.1782066232D-05
   current occupation vector 
     5  1  1  0
     5  1  1  0
      22          -112.622386899196314              0.2443505898D-06
   current occupation vector 
     5  1  1  0
     5  1  1  0
      23          -112.622386899196769              0.3853488040D-07
   current occupation vector 
     5  1  1  0
     5  1  1  0
      24          -112.622386899196343              0.8615933300D-08
   current occupation vector 
     5  1  1  0
     5  1  1  0
      25          -112.622386899194467              0.1992961796D-08
   current occupation vector 
     5  1  1  0
     5  1  1  0
      26          -112.622386899196599              0.3956590611D-09
   current occupation vector 
     5  1  1  0
     5  1  1  0
      27          -112.622386899196201              0.2958182588D-09
   current occupation vector 
     5  1  1  0
     5  1  1  0
      28          -112.622386899195519              0.1878672773D-09
   current occupation vector 
     5  1  1  0
     5  1  1  0
      29          -112.622386899196741              0.9705987125D-09
   current occupation vector 
     5  1  1  0
     5  1  1  0
      30          -112.622386899194154              0.1219126133D-08
   current occupation vector 
     5  1  1  0
     5  1  1  0

  SCF has converged.

 Density matrix saved to file den.dat
 total electron number:   14.0000000000002     
     E(SCF)=      -112.622386899196201              0.5762530730D-10

  Eigenvector printing suppressed.

 @PUTMOS-I, Writing converged MOs to NEWMOS. 
 @PUTMOS-I, Symmetry   1 Full Blocks 21 Partial Blocksize   2
 @PUTMOS-I, Symmetry   2 Full Blocks 13 Partial Blocksize   0
 @PUTMOS-I, Symmetry   3 Full Blocks 13 Partial Blocksize   0
 @PUTMOS-I, Symmetry   4 Full Blocks  7 Partial Blocksize   0
 @PUTFOCK-I, Writing converged Fock matrix to NEWFOCK. 
 @PUTFOCK-I, Symmetry   1 Full Blocks 21 Partial Blocksize   2
 @PUTFOCK-I, Symmetry   2 Full Blocks 13 Partial Blocksize   0
 @PUTFOCK-I, Symmetry   3 Full Blocks 13 Partial Blocksize   0
 @PUTFOCK-I, Symmetry   4 Full Blocks  7 Partial Blocksize   0


 
  ORBITAL EIGENVALUES (ALPHA)  (1H = 27.2113834 eV)

       MO #        E(hartree)               E(eV)           FULLSYM    COMPSYM
       ----   --------------------   --------------------   -------   ---------
    1     1         -20.6572646476        -562.1127483221     SG+        A1 (1)
    2     2         -11.4872594902        -312.5842222040     SG+        A1 (1)
    3     3          -1.3325193866         -36.2596959154     SG+        A1 (1)
    4     4          -0.7954752228         -21.6459812739     SG+        A1 (1)
    5     5          -0.5552190390         -15.1082781422     SG+        A1 (1)
    6    87          -0.5281969969         -14.3729709939      PI        B1 (2)
    7   139          -0.5281969969         -14.3729709939      PI        B2 (3)
  +++++++++++++++++++++++++++++++++++++++++++++++++++++++++++++++++++++++++++++
    8    88           0.0211306991           0.5749955547      PI        B1 (2)
    9   140           0.0211306991           0.5749955547      PI        B2 (3)
   10     6           0.0637022508           1.7334263695     SG+        A1 (1)
   11     7           0.0685571380           1.8655345668     SG+        A1 (1)
   12    89           0.0866487964           2.3578336194      PI        B1 (2)
   13   141           0.0866487964           2.3578336194      PI        B2 (3)
   14     8           0.1566483107           4.2626172407     SG+        A1 (1)
   15    90           0.1742861426           4.7425670472      PI        B1 (2)
   16   142           0.1742861426           4.7425670472      PI        B2 (3)
   17     9           0.2207758359           6.0076159168     SG+        A1 (1)
   18   191           0.2247986349           6.1170818423      DE        A2 (4)
   19    10           0.2247986349           6.1170818423      DE        A1 (1)
   20    91           0.2938205850           7.9952645893      PI        B1 (2)
   21   143           0.2938205850           7.9952645893      PI        B2 (3)
   22    11           0.2996895721           8.1549678467     SG+        A1 (1)
   23    12           0.3546745308           9.6511846410     SG+        A1 (1)
   24   144           0.4008345994          10.9072639635      PI        B2 (3)
   25    92           0.4008345994          10.9072639635      PI        B1 (2)
   26    13           0.4595964882          12.5062562499     SG+        A1 (1)
   27    14           0.5117205685          13.9246245836     SG+        A1 (1)
   28    15           0.5478767299          14.9084837525      DE        A1 (1)
   29   192           0.5478767299          14.9084837525      DE        A2 (4)
   30   145           0.6239813110          16.9793946868      PI        B2 (3)
   31    93           0.6239813110          16.9793946868      PI        B1 (2)
   32    16           0.7223949673          19.6573664223     SG+        A1 (1)
   33    94           0.7381037050          20.0848229057      PH        B1 (2)
   34   146           0.7381037050          20.0848229057      PH        B2 (3)
   35   193           0.7484483450          20.3663148701      DE        A2 (4)
   36    17           0.7484483450          20.3663148701      DE        A1 (1)
   37   147           0.7877959877          21.4370186626      PI        B2 (3)
   38    95           0.7877959877          21.4370186626      PI        B1 (2)
   39    18           0.8256713895          22.4676607430     SG+        A1 (1)
   40    19           0.8698201394          23.6690093031     SG+        A1 (1)
   41    20           0.8703878348          23.6844570803      DE        A1 (1)
   42   194           0.8703878348          23.6844570803      DE        A2 (4)
   43   148           0.8966424797          24.3988822881      PI        B2 (3)
   44    96           0.8966424797          24.3988822881      PI        B1 (2)
   45   149           1.0328992545          28.1066176289      PI        B2 (3)
   46    97           1.0328992545          28.1066176289      PI        B1 (2)
   47    21           1.1244199125          30.5970213426     SG+        A1 (1)
   48    22           1.3893253187          37.8054639146     SG+        A1 (1)
   49    98           1.4259233617          38.8013472935      PH        B1 (2)
   50   150           1.4259233617          38.8013472935      PH        B2 (3)
   51   151           1.5371008105          41.8266394798      PI        B2 (3)
   52    99           1.5371008105          41.8266394798      PI        B1 (2)
   53    23           1.5708949476          42.7462246989      DE        A1 (1)
   54   195           1.5708949476          42.7462246989      DE        A2 (4)
   55    24           1.6191689841          44.0598280155     SG+        A1 (1)
   56   152           1.6405083297          44.6405011315      PI        B2 (3)
   57   100           1.6405083297          44.6405011315      PI        B1 (2)
   58    25           1.7045997366          46.3845169749      DE        A1 (1)
   59   196           1.7045997366          46.3845169749      DE        A2 (4)
   60    26           1.8977233989          51.6396789952     SG+        A1 (1)
   61    27           1.9939779448          54.2588983479     SG+        A1 (1)
   62   197           2.0798600306          56.5958687109      PI        A2 (4)
   63    28           2.0798600306          56.5958687109      PI        A1 (1)
   64   153           2.0905993181          56.8880995805      PI        B2 (3)
   65   101           2.0905993181          56.8880995805      PI        B1 (2)
   66   198           2.1425531012          58.3018338926      DE        A2 (4)
   67    29           2.1425531012          58.3018338926      DE        A1 (1)
   68   102           2.2201847379          60.4142981231      PH        B1 (2)
   69   154           2.2201847379          60.4142981231      PH        B2 (3)
   70   155           2.2490559737          61.1999243897      PH        B2 (3)
   71   103           2.2490559737          61.1999243897      PH        B1 (2)
   72   104           2.2518555943          61.2761059387      PI        B1 (2)
   73   156           2.2518555943          61.2761059387      PI        B2 (3)
   74    30           2.2551564465          61.3659266930     SG+        A1 (1)
   75    31           2.3061597209          62.7537963464      DE        A1 (1)
   76   199           2.3061597209          62.7537963465      DE        A2 (4)
   77    32           2.4738699879          67.3174247213     SG+        A1 (1)
   78   157           2.5211809483          68.6048214041      PI        B2 (3)
   79   105           2.5211809483          68.6048214041      PI        B1 (2)
   80    33           2.6004683006          70.7623399471     SG+        A1 (1)
   81   158           2.6197617581          71.2873416167      PI        B2 (3)
   82   106           2.6197617581          71.2873416167      PI        B1 (2)
   83   200           2.7352508415          74.4299593437      DE        A2 (4)
   84    34           2.7352508415          74.4299593437      DE        A1 (1)
   85    35           3.1429773950          85.5247629131     SG+        A1 (1)
   86   107           3.5169077644          95.6999255599      PI        B1 (2)
   87   159           3.5169077644          95.6999255599      PI        B2 (3)
   88    36           3.7019763183         100.7358969345      PI        A1 (1)
   89   201           3.7019763183         100.7358969345      PI        A2 (4)
   90    37           3.9048571680         106.2565655202     SG+        A1 (1)
   91   160           3.9844878511         108.4234265700      PH        B2 (3)
   92   108           3.9844878511         108.4234265700      PH        B1 (2)
   93   161           4.1289436519         112.3542687494      PH        B2 (3)
   94   109           4.1289436519         112.3542687494      PH        B1 (2)
   95   162           4.1635352078         113.2955528394      PI        B2 (3)
   96   110           4.1635352078         113.2955528394      PI        B1 (2)
   97    38           4.1932287413         114.1035549645     SG+        A1 (1)
   98   202           4.2193078629         114.8132039388      DE        A2 (4)
   99    39           4.2193078629         114.8132039388      DE        A1 (1)
  100    40           4.2739196433         116.2992660343      DE        A1 (1)
  101   203           4.2739196433         116.2992660344      DE        A2 (4)
  102    41           4.4302134272         120.5522361101     SG+        A1 (1)
  103   163           4.6488926551         126.5028004245      PI        B2 (3)
  104   111           4.6488926551         126.5028004245      PI        B1 (2)
  105    42           4.8089718052         130.8587755502     SG+        A1 (1)
  106   204           4.8132899214         130.9762774675      DE        A2 (4)
  107    43           4.8132899214         130.9762774675      DE        A1 (1)
  108   164           5.1506816122         140.1571721214      PI        B2 (3)
  109   112           5.1506816122         140.1571721215      PI        B1 (2)
  110    44           5.3678966656         146.0678942189     SG+        A1 (1)
  111   113           5.4084675649         147.1718845148      PI        B1 (2)
  112   165           5.4084675649         147.1718845148      PI        B2 (3)
  113   205           5.8485776179         159.1478879056      PI        A2 (4)
  114    45           5.8485776179         159.1478879056      PI        A1 (1)
  115   114           5.9322455132         161.4246070832      PH        B1 (2)
  116   166           5.9322455132         161.4246070832      PH        B2 (3)
  117    46           6.1247018710         166.6616108212     SG+        A1 (1)
  118   206           6.1656806300         167.7766995445      DE        A2 (4)
  119    47           6.1656806300         167.7766995445      DE        A1 (1)
  120   167           6.1854176293         168.3137705992      PI        B2 (3)
  121   115           6.1854176293         168.3137705992      PI        B1 (2)
  122    48           6.2532332519         170.1591275072     SG+        A1 (1)
  123   168           6.3798393664         173.6042550301      PH        B2 (3)
  124   116           6.3798393664         173.6042550301      PH        B1 (2)
  125   207           6.4630517411         175.8685788618      DE        A2 (4)
  126    49           6.4630517411         175.8685788618      DE        A1 (1)
  127    50           6.5140694929         177.2568424648      DE        A1 (1)
  128   208           6.5140694929         177.2568424648      DE        A2 (4)
  129   169           6.9130493472         188.1136362510      PI        B2 (3)
  130   117           6.9130493472         188.1136362510      PI        B1 (2)
  131    51           7.1983849694         195.8780132637     SG+        A1 (1)
  132   170           7.5480955837         205.3941228684      PI        B2 (3)
  133   118           7.5480955837         205.3941228684      PI        B1 (2)
  134    52           8.1948110820         222.9921462438     SG+        A1 (1)
  135    53           9.6838436492         263.5107823249     SG+        A1 (1)
  136   171           9.8982043765         269.3438342608      PI        B2 (3)
  137   119           9.8982043765         269.3438342610      PI        B1 (2)
  138    54          10.6352280060         289.3992668169      PI        A1 (1)
  139   209          10.6352280060         289.3992668169      PI        A2 (4)
  140    55          10.7310546150         292.0068414141     SG+        A1 (1)
  141   172          10.7561921245         292.6908678247      PH        B2 (3)
  142   120          10.7561921245         292.6908678247      PH        B1 (2)
  143    56          10.9909345361         299.0785335864      DE        A1 (1)
  144   210          10.9909345361         299.0785335864      DE        A2 (4)
  145   121          11.0143918664         299.7168399940      PI        B1 (2)
  146   173          11.0143918664         299.7168399940      PI        B2 (3)
  147    57          11.2618391924         306.4502240530     SG+        A1 (1)
  148   174          11.8754395160         323.1471377132      PH        B2 (3)
  149   122          11.8754395160         323.1471377132      PH        B1 (2)
  150   211          12.0338313366         327.4571982706      DE        A2 (4)
  151    58          12.0338313366         327.4571982707      DE        A1 (1)
  152   175          12.5403848797         341.2412209450      PI        B2 (3)
  153   123          12.5403848797         341.2412209450      PI        B1 (2)
  154   212          12.7469094881         346.8610412448      DE        A2 (4)
  155    59          12.7469094881         346.8610412448      DE        A1 (1)
  156    60          12.7909113823         348.0583936585     SG+        A1 (1)
  157   124          13.0877662429         356.1362250852      PI        B1 (2)
  158   176          13.0877662429         356.1362250852      PI        B2 (3)
  159    61          13.8082688806         375.7420986011     SG+        A1 (1)
  160    62          17.4552293938         474.9809393698     SG+        A1 (1)
  161   125          18.8264257807         512.2930899709      PI        B1 (2)
  162   177          18.8264257807         512.2930899711      PI        B2 (3)
  163    63          20.1065600857         547.1273153464     SG+        A1 (1)
  164    64          26.3051284197         715.7989348139      DE        A1 (1)
  165   213          26.3051284197         715.7989348139      DE        A2 (4)
  166   178          26.6885065859         726.2311850815      PI        B2 (3)
  167   126          26.6885065859         726.2311850815      PI        B1 (2)
  168    65          27.1855754302         739.7571159819     SG+        A1 (1)
  169   179          33.5610802029         913.2434207197      PI        B2 (3)
  170   127          33.5610802029         913.2434207205      PI        B1 (2)
  171    66          34.3348962517         934.3000259039     SG+        A1 (1)
  172    67          35.8529078659         975.6072219439     SG+        A1 (1)
  173   214          47.0752698558        1280.9832167056      DE        A2 (4)
  174    68          47.0752698558        1280.9832167056      DE        A1 (1)
  175   128          47.2586280602        1285.9726471042      PI        B1 (2)
  176   180          47.2586280602        1285.9726471044      PI        B2 (3)
  177    69          47.6870527466        1297.6306755044     SG+        A1 (1)
  178    70          63.8688043488        1737.9585224347     SG+        A1 (1)
  179   129          66.3896318569        1806.5537262423      PI        B1 (2)
  180   181          66.3896318569        1806.5537262425      PI        B2 (3)
  181    71          67.3081396396        1831.5475936750     SG+        A1 (1)
  182   182          98.5433484985        2681.5008375115      PH        B2 (3)
  183   130          98.5433484985        2681.5008375116      PH        B1 (2)
  184    72          98.5567572678        2681.8657086755      DE        A1 (1)
  185   215          98.5567572678        2681.8657086755      DE        A2 (4)
  186   131          98.5731771933        2682.3125175630      PI        B1 (2)
  187   183          98.5731771933        2682.3125175630      PI        B2 (3)
  188    73          98.5897554915        2682.7636359916     SG+        A1 (1)
  189   184         103.2959429246        2810.8255065858      PH        B2 (3)
  190   132         103.2959429246        2810.8255065858      PH        B1 (2)
  191   216         103.3064419485        2811.1111995518      DE        A2 (4)
  192    74         103.3064419487        2811.1111995552      DE        A1 (1)
  193   133         103.3474302095        2812.2265468343      PI        B1 (2)
  194   185         103.3474302095        2812.2265468344      PI        B2 (3)
  195    75         103.3497261220        2812.2890217909     SG+        A1 (1)
  196    76         115.0012234484        3129.3423827224      DE        A1 (1)
  197   217         115.0012234484        3129.3423827225      DE        A2 (4)
  198   186         115.1854250774        3134.3547638719      PI        B2 (3)
  199   134         115.1854250774        3134.3547638719      PI        B1 (2)
  200    77         115.4548868246        3141.6871907883     SG+        A1 (1)
  201   187         116.8440929808        3179.4894121265      PI        B2 (3)
  202   135         116.8440929808        3179.4894121271      PI        B1 (2)
  203    78         117.4755572490        3196.6724284306     SG+        A1 (1)
  204    79         122.0643696029        3321.5403607432     SG+        A1 (1)
  205   218         198.5517312760        5402.8672844853      DE        A2 (4)
  206    80         198.5517312760        5402.8672844853      DE        A1 (1)
  207   136         198.6511688081        5405.5731172952      PI        B1 (2)
  208   188         198.6511688081        5405.5731172952      PI        B2 (3)
  209    81         198.8749039883        5411.6612610628     SG+        A1 (1)
  210    82         216.4002701516        5888.5507189599     SG+        A1 (1)
  211   137         224.8594152281        6118.7357588724      PI        B1 (2)
  212   189         224.8594152281        6118.7357588726      PI        B2 (3)
  213    83         225.5734084005        6138.1645008319     SG+        A1 (1)
  214   190         395.3397092281       10757.7404010507      PI        B2 (3)
  215   138         395.3397092281       10757.7404010509      PI        B1 (2)
  216    84         395.8761588235       10772.3379366659     SG+        A1 (1)
  217    85         508.7380684187       13843.4666299172     SG+        A1 (1)
  218    86         895.2277592475       24360.3857872065     SG+        A1 (1)


  VSCF finished.

 @CHECKOUT-I, Total execution time (CPU/WALL):       57.05/      13.04 seconds.
--executable xvscf finished with status     0 in       13.12 seconds (walltime).
 --invoking executable--
/nfs/workspaces/public/cfour_mpi/bin/xvtran
 @GETMEM-I,  Allocated    3814 MB of main memory.
  Full RHF integral transformation
  Transformation of IIII integrals :
  1 pass through the AO integral file was required.
     4481996 AO integrals were read.
     8724968 MO integrals were written to HF2.
  Transformation of IIJJ integrals :
  1 pass through the AO integral file was required.
    10176632 AO integrals were read.
    14479702 MO integrals were written to HF2.
  Transformation of IJIJ integrals :
  1 pass through the AO integral file was required.
    19326505 AO integrals were read.
    27057942 MO integrals were written to HF2.
  Transformation of IJKL integrals :
  1 pass through the AO integral file was required.
    14299420 AO integrals were read.
    18300234 MO integrals were written to HF2.
  Summary of active molecular orbitals: 
------------------------------------------------------------------------
 
  Index      Eigenvalue    Symmetry    Index      Eigenvalue    Symmetry
------------------------------------------------------------------------
     1       -20.6572646        1       110         4.1289437        2
     2       -11.4872595        1       111         4.1635352        2
     3        -1.3325194        1       112         4.6488927        2
     4        -0.7954752        1       113         5.1506816        2
     5        -0.5552190        1       114         5.4084676        2
     6        -0.5281970        2       115         5.9322455        2
     7        -0.5281970        3       116         6.1854176        2
     8         0.0637023        1       117         6.3798394        2
     9         0.0685571        1       118         6.9130493        2
    10         0.1566483        1       119         7.5480956        2
    11         0.2207758        1       120         9.8982044        2
    12         0.2247986        1       121        10.7561921        2
    13         0.2996896        1       122        11.0143919        2
    14         0.3546745        1       123        11.8754395        2
    15         0.4595965        1       124        12.5403849        2
    16         0.5117206        1       125        13.0877662        2
    17         0.5478767        1       126        18.8264258        2
    18         0.7223950        1       127        26.6885066        2
    19         0.7484483        1       128        33.5610802        2
    20         0.8256714        1       129        47.2586281        2
    21         0.8698201        1       130        66.3896319        2
    22         0.8703878        1       131        98.5433485        2
    23         1.1244199        1       132        98.5731772        2
    24         1.3893253        1       133       103.2959429        2
    25         1.5708949        1       134       103.3474302        2
    26         1.6191690        1       135       115.1854251        2
    27         1.7045997        1       136       116.8440930        2
    28         1.8977234        1       137       198.6511688        2
    29         1.9939779        1       138       224.8594152        2
    30         2.0798600        1       139       395.3397092        2
    31         2.1425531        1       140         0.0211307        3
    32         2.2551564        1       141         0.0866488        3
    33         2.3061597        1       142         0.1742861        3
    34         2.4738700        1       143         0.2938206        3
    35         2.6004683        1       144         0.4008346        3
    36         2.7352508        1       145         0.6239813        3
    37         3.1429774        1       146         0.7381037        3
    38         3.7019763        1       147         0.7877960        3
    39         3.9048572        1       148         0.8966425        3
    40         4.1932287        1       149         1.0328993        3
    41         4.2193079        1       150         1.4259234        3
    42         4.2739196        1       151         1.5371008        3
    43         4.4302134        1       152         1.6405083        3
    44         4.8089718        1       153         2.0905993        3
    45         4.8132899        1       154         2.2201847        3
    46         5.3678967        1       155         2.2490560        3
    47         5.8485776        1       156         2.2518556        3
    48         6.1247019        1       157         2.5211809        3
    49         6.1656806        1       158         2.6197618        3
    50         6.2532333        1       159         3.5169078        3
    51         6.4630517        1       160         3.9844879        3
    52         6.5140695        1       161         4.1289437        3
    53         7.1983850        1       162         4.1635352        3
    54         8.1948111        1       163         4.6488927        3
    55         9.6838436        1       164         5.1506816        3
    56        10.6352280        1       165         5.4084676        3
    57        10.7310546        1       166         5.9322455        3
    58        10.9909345        1       167         6.1854176        3
    59        11.2618392        1       168         6.3798394        3
    60        12.0338313        1       169         6.9130493        3
    61        12.7469095        1       170         7.5480956        3
    62        12.7909114        1       171         9.8982044        3
    63        13.8082689        1       172        10.7561921        3
    64        17.4552294        1       173        11.0143919        3
    65        20.1065601        1       174        11.8754395        3
    66        26.3051284        1       175        12.5403849        3
    67        27.1855754        1       176        13.0877662        3
    68        34.3348963        1       177        18.8264258        3
    69        35.8529079        1       178        26.6885066        3
    70        47.0752699        1       179        33.5610802        3
    71        47.6870527        1       180        47.2586281        3
    72        63.8688043        1       181        66.3896319        3
    73        67.3081396        1       182        98.5433485        3
    74        98.5567573        1       183        98.5731772        3
    75        98.5897555        1       184       103.2959429        3
    76       103.3064419        1       185       103.3474302        3
    77       103.3497261        1       186       115.1854251        3
    78       115.0012234        1       187       116.8440930        3
    79       115.4548868        1       188       198.6511688        3
    80       117.4755572        1       189       224.8594152        3
    81       122.0643696        1       190       395.3397092        3
    82       198.5517313        1       191         0.2247986        4
    83       198.8749040        1       192         0.5478767        4
    84       216.4002702        1       193         0.7484483        4
    85       225.5734084        1       194         0.8703878        4
    86       395.8761588        1       195         1.5708949        4
    87       508.7380684        1       196         1.7045997        4
    88       895.2277592        1       197         2.0798600        4
    89         0.0211307        2       198         2.1425531        4
    90         0.0866488        2       199         2.3061597        4
    91         0.1742861        2       200         2.7352508        4
    92         0.2938206        2       201         3.7019763        4
    93         0.4008346        2       202         4.2193079        4
    94         0.6239813        2       203         4.2739196        4
    95         0.7381037        2       204         4.8132899        4
    96         0.7877960        2       205         5.8485776        4
    97         0.8966425        2       206         6.1656806        4
    98         1.0328993        2       207         6.4630517        4
    99         1.4259234        2       208         6.5140695        4
   100         1.5371008        2       209        10.6352280        4
   101         1.6405083        2       210        10.9909345        4
   102         2.0905993        2       211        12.0338313        4
   103         2.2201847        2       212        12.7469095        4
   104         2.2490560        2       213        26.3051284        4
   105         2.2518556        2       214        47.0752699        4
   106         2.5211809        2       215        98.5567573        4
   107         2.6197618        2       216       103.3064419        4
   108         3.5169078        2       217       115.0012234        4
   109         3.9844879        2       218       198.5517313        4
------------------------------------------------------------------------
  -20.6572646476363       -11.4872594902333       -1.33251938655032     
 -0.795475222840620      -0.555219039037745      -0.528196996920138     
 -0.528196996920132       6.370225078381272E-002  6.855713799403990E-002
  0.156648310673256       0.220775835924318       0.224798634908379     
  0.299689572073109       0.354674530844741       0.459596488207711     
  0.511720568515837       0.547876729871913       0.722394967330561     
  0.748448344970828       0.825671389533894       0.869820139432567     
  0.870387834832671        1.12441991253490        1.38932531870445     
   1.57089494755131        1.61916898409318        1.70459973655237     
   1.89772339892172        1.99397794482781        2.07986003059808     
   2.14255310123742        2.25515644651034        2.30615972087794     
   2.47386998785692        2.60046830059881        2.73525084151618     
   3.14297739500646        3.70197631828112        3.90485716798171     
   4.19322874133862        4.21930786285612        4.27391964328886     
   4.43021342715423        4.80897180516680        4.81328992143306     
   5.36789666558666        5.84857761790864        6.12470187095152     
[...]
 Convergence information after    14 iterations: 
 Largest element of residual vector :  0.14253365E-05.
 Largest element of DIIS residual   :  0.97462775E-06.
 Convergence information after    15 iterations: 
 Largest element of residual vector :  0.89369958E-06.
 Largest element of DIIS residual   :  0.70695970E-06.
 Convergence information after    16 iterations: 
 Largest element of residual vector :  0.51191139E-06.
 Largest element of DIIS residual   :  0.21133257E-06.
 Convergence information after    17 iterations: 
 Largest element of residual vector :  0.22080568E-06.
 Largest element of DIIS residual   :  0.75016874E-07.
 Perturbed amplitude equations converged in    17 iterations.
  Dominant contributions to perturbed wavefunction:
    7    7  140   28   0.2414789428 ABAB
    7    7   28  140   0.2414789428 ABAB
    7    7  140   39  -0.2225870577 ABAB
    7    7   39  140  -0.2225870577 ABAB
    7    7  140   21  -0.1821979648 ABAB
    7    7   21  140  -0.1821979648 ABAB
    7    7  140   44   0.1750316131 ABAB
    7    7   44  140   0.1750316131 ABAB
    7    7  140   54  -0.1669584531 ABAB
    7    7   54  140  -0.1669584531 ABAB
    7    6   28   89   0.1521782745 ABAB
    6    7   89   28   0.1521782745 ABAB
    7    7  140   57   0.1436208943 ABAB
    7    7   57  140   0.1436208943 ABAB
    7    7  140   29  -0.1415335220 ABAB
    7    7   29  140  -0.1415335220 ABAB
    7    6   39   89  -0.1410870123 ABAB
    6    7   89   39  -0.1410870123 ABAB
    7    7  140   24   0.1330750546 ABAB
    7    7   24  140   0.1330750546 ABAB
  norm of converged amps    1.82280988761343     
 Starting iterative solution of the perturbed Lambda equations.
 The DIIS procedure is used to accelerate convergence.
 Convergence criterion is 10**(-7).
 Maximum number of iterations is 100.
 Convergence information after     1 iterations: 
 Largest element of residual vector :  0.68959729E-01.
 Largest element of DIIS residual   :  0.68959729E-01.
 Convergence information after     2 iterations: 
 Largest element of residual vector : -0.13744274E-01.
 Largest element of DIIS residual   :  0.87275808E-02.
 Convergence information after     3 iterations: 
 Largest element of residual vector : -0.61968853E-02.
 Largest element of DIIS residual   : -0.57417482E-02.
 Convergence information after     4 iterations: 
 Largest element of residual vector : -0.38385031E-02.
 Largest element of DIIS residual   : -0.33918117E-02.
 Convergence information after     5 iterations: 
 Largest element of residual vector : -0.29452794E-02.
 Largest element of DIIS residual   : -0.19839783E-02.
 Convergence information after     6 iterations: 
 Largest element of residual vector : -0.13076659E-02.
 Largest element of DIIS residual   : -0.57339780E-03.
 Convergence information after     7 iterations: 
 Largest element of residual vector : -0.57357910E-03.
 Largest element of DIIS residual   : -0.22935612E-03.
 Convergence information after     8 iterations: 
 Largest element of residual vector : -0.14876487E-03.
 Largest element of DIIS residual   : -0.10068911E-03.
 Convergence information after     9 iterations: 
 Largest element of residual vector : -0.59502318E-04.
 Largest element of DIIS residual   : -0.22611674E-04.
 Convergence information after    10 iterations: 
 Largest element of residual vector : -0.18693023E-04.
 Largest element of DIIS residual   : -0.84791991E-05.
 Convergence information after    11 iterations: 
 Largest element of residual vector : -0.39144843E-05.
 Largest element of DIIS residual   : -0.30153456E-05.
 Convergence information after    12 iterations: 
 Largest element of residual vector : -0.21526519E-05.
 Largest element of DIIS residual   : -0.15655561E-05.
 Convergence information after    13 iterations: 
 Largest element of residual vector :  0.12944818E-05.
 Largest element of DIIS residual   :  0.13566868E-05.
 Convergence information after    14 iterations: 
 Largest element of residual vector :  0.98589773E-06.
 Largest element of DIIS residual   :  0.78118741E-06.
 Convergence information after    15 iterations: 
 Largest element of residual vector :  0.68830788E-06.
 Largest element of DIIS residual   :  0.55493101E-06.
 Convergence information after    16 iterations: 
 Largest element of residual vector :  0.39653634E-06.
 Largest element of DIIS residual   :  0.20874248E-06.
 Convergence information after    17 iterations: 
 Largest element of residual vector :  0.19768375E-06.
 Largest element of DIIS residual   :  0.75207551E-07.
 Perturbed Lambda equations converged in    17 iterations.
  Dominant contributions to perturbed wavefunction:
    7    7  140   28   0.2134224050 ABAB
    7    7   28  140   0.2134224050 ABAB
    7    7  140   39  -0.1936786839 ABAB
    7    7   39  140  -0.1936786839 ABAB
    7    7  140   21  -0.1596075197 ABAB
    7    7   21  140  -0.1596075197 ABAB
    7    7  140   44   0.1527572584 ABAB
    7    7   44  140   0.1527572584 ABAB
    7    7  140   54  -0.1481367290 ABAB
    7    7   54  140  -0.1481367290 ABAB
    7    6   28   89   0.1322062449 ABAB
    6    7   89   28   0.1322062449 ABAB
    7    7  140   57   0.1243839684 ABAB
    7    7   57  140   0.1243839684 ABAB
    7    7  140   29  -0.1214210647 ABAB
    7    7   29  140  -0.1214210647 ABAB
    7    6   39   89  -0.1207832453 ABAB
    6    7   89   39  -0.1207832453 ABAB
    7    7  140   24   0.1127824894 ABAB
    7    7   24  140   0.1127824894 ABAB
        The DBOC first-order density matrix is being calculated 
             (Symmetry block 3, perturbation   2)
 term   3.62643655604274     
 final tnorm  0.833950990752847     
  norm contr. I: |<0|L dT/dx|0>|^2   0.000000000000000E+000
  norm contr. II: <0|[nabla(1+L)e-T][nabla e^T]|0>   3.62643655604274     
  total norm contribution   3.62643655604274     
 oo  7.153172203133912E-003
 vv  -24.1382216954821     
 vo  6.664360566464614E-002
  Correlated perturbed 1-el contribution to DBOC  -24.0644249176143       cm**-1
  SUM_I |dc_I/dx|^2 contribution to DBOC   12.1318763627634       cm**-1
 
 
  The total diagonal Born-Oppenheimer correction (DBOC) is:      0.0038686400 a.u.
  The total diagonal Born-Oppenheimer correction (DBOC) is:        849.068342 cm-1
 
 Total CC energy including DBOC  -113.151556822584     
 First-order density matrix is being calculated  (Symmetry block 3, perturbation   2)
 Calculation of the contributions of <pq||rs> to dI(i,j)/dx required   3.3 seconds.
 Calculation of the contributions of <pq||rs> to dI(a,b)/dx required  16.3 seconds.
 Calculation of the contributions of <pq||rs> to dI(i,a)/dx required   9.5 seconds.
 First-order Z-vector equations are solved for 1 perturbation.
 Convergence reached after  22 iterations.
        U*G(pq,rs) contribution is being calculated
             (Symmetry block 3, perturbation   2)

 CCSD contribution to force constants 

        0.0000000000        0.0000000000        0.0000000000
        0.0000000000        0.0000000000        0.0000000000
        0.0000000000        0.0000000000        0.0000000000
        0.0000000000        0.0000000000        0.0000000000
        0.0000000000        0.0000000000        0.0000000000
        0.0000000000        0.0000000000        0.0000000000
        0.0000000000        0.0000000000        0.0000000000
        0.0000000000        0.0000000000        0.0000000000
        0.0000000000        0.0000000000        0.0000000000
        0.0000000000        0.0000000000        0.0000000000
        0.0000000000        0.0000000000        0.0000000000
        0.0000000000       -1.0367868167        1.0367868167

 CCSD contribution to dipole derivatives 

        0.0000000000        0.0000000000        0.0000000000
        0.0000000000        0.0000000000        0.0000000000
        0.0000000000        0.0000000000        0.0000000000
        0.0000000000        0.0000000000       -0.0557166175
        0.0000000000        0.0000000000        0.0000000000
        0.0000000000        0.0000000000        0.0000000000
 @CHECKOUT-I, Total execution time (CPU/WALL):     1314.45/     510.38 seconds.
--executable xsdcc finished with status     0 in      510.60 seconds (walltime).
 --invoking executable--
/nfs/workspaces/public/cfour_mpi/bin/xanti
 @GETMEM-I,  Allocated    3814 MB of main memory.
 CCSD MO derivative gammas will be sorted to Mulliken order.
 @CHECKOUT-I, Total execution time (CPU/WALL):       13.71/      31.68 seconds.
--executable xanti finished with status     0 in       31.82 seconds (walltime).
 --invoking executable--
/nfs/workspaces/public/cfour_mpi/bin/xbcktrn
 @GETMEM-I,  Allocated    3814 MB of main memory.
 CCSD MO derivative gammas will be transformed to the AO basis.
 @CHECKOUT-I, Total execution time (CPU/WALL):       27.98/       4.48 seconds.
--executable xbcktrn finished with status     0 in        4.54 seconds (walltime).
 --invoking executable--
/nfs/workspaces/public/cfour_mpi/bin/xvdint
 @GETMEM-I,  Allocated    3814 MB of main memory.
 One- and two-electron integral derivatives are calculated
 for RHF-CC/MBPT hessians and dipole derivatives.
 Spherical gaussians are used.
  magnet F F
                    8722  records have been written to the Sort file.
  Total length of Sort file :             178609116  words.
 Evaluation of 2el integral derivatives

                      Two-electron integral gradient
                      ------------------------------

                         C #1 z     0.0000000000
                         O #2 z     0.0000000000


 C #1       0.0000000000           -0.0028148268            0.0000000000
 O #2       0.0000000000            0.0028148268            0.0000000000


 Evaluation of 2e integral derivatives required  376.93 seconds.
  contribution to Hessian
        0.0000000000        0.0000000000        0.0000000000
        0.0000000000       -0.0028148268        0.0028148268
 @CHECKOUT-I, Total execution time (CPU/WALL):      376.92/      82.21 seconds.
--executable xvdint finished with status     0 in       82.36 seconds (walltime).
 --invoking executable--
/nfs/workspaces/public/cfour_mpi/bin/xanti
 @GETMEM-I,  Allocated    3814 MB of main memory.
 CCSD MO gammas will be sorted to Mulliken order.
 @CHECKOUT-I, Total execution time (CPU/WALL):       16.37/      47.53 seconds.
--executable xanti finished with status     0 in       47.77 seconds (walltime).
 --invoking executable--
/nfs/workspaces/public/cfour_mpi/bin/xbcktrn
 @GETMEM-I,  Allocated    3814 MB of main memory.
 CCSD MO gammas will be transformed to the AO basis.
 @CHECKOUT-I, Total execution time (CPU/WALL):       69.96/      17.96 seconds.
--executable xbcktrn finished with status     0 in       18.02 seconds (walltime).
 --invoking executable--
/nfs/workspaces/public/cfour_mpi/bin/xvdint
 @GETMEM-I,  Allocated    3814 MB of main memory.
 One- and two-electron integral derivatives are calculated
 for RHF-CC/MBPT hessians and dipole derivatives.
 Spherical gaussians are used.
  magnet F F

                     Kinetic energy integral gradient
                     --------------------------------

                         C #1 z    -0.7190274185
                         O #2 z     0.7190274185


 C #1       0.0000000000            0.0000000000           -0.7190274185
 O #2       0.0000000000            0.0000000000            0.7190274185



                   Nuclear attraction integral gradient
                   ------------------------------------

                         C #1 z    15.9911660416
                         O #2 z   -15.9911660416


 C #1       0.0000000000            0.0000000000           15.9911660416
 O #2       0.0000000000            0.0000000000          -15.9911660416



                      Reorthonormalization gradient
                      -----------------------------

                         C #1 z     0.0000000000
                         O #2 z     0.0000000000


 C #1       0.0000000000            0.0000000000            0.0000000000
 O #2       0.0000000000            0.0000000000            0.0000000000



                     Kinetic energy integral Hessian
                     -------------------------------


           Symmetry 1

           C #1 z      O #2 z

 C #1 z    0.736670
 O #2 z   -0.736670    0.736670


           Symmetry 2

           C #1 x      O #2 x

 C #1 x   -0.630319
 O #2 x    0.630319   -0.630319


           Symmetry 3

           C #1 y      O #2 y

 C #1 y   -0.630319
 O #2 y    0.630319   -0.630319




           C #1 x      C #1 y      C #1 z      O #2 x      O #2 y      O #2 z

 C #1 x   -0.630319
 C #1 y    0.000000   -0.630319
 C #1 z    0.000000    0.000000    0.736670

 O #2 x    0.630319    0.000000    0.000000   -0.630319
 O #2 y    0.000000    0.630319    0.000000    0.000000   -0.630319
 O #2 z    0.000000    0.000000   -0.736670    0.000000    0.000000    0.736670




                   Nuclear attraction integral Hessian
                   -----------------------------------


           Symmetry 1

           C #1 z      O #2 z

 C #1 z   -9.893693
 O #2 z    9.893693   -9.893693


           Symmetry 2

           C #1 x      O #2 x

 C #1 x    9.750187
 O #2 x   -9.750187    9.750187


           Symmetry 3

           C #1 y      O #2 y

 C #1 y    9.750187
 O #2 y   -9.750187    9.750187




           C #1 x      C #1 y      C #1 z      O #2 x      O #2 y      O #2 z

 C #1 x    9.750187
 C #1 y    0.000000    9.750187
 C #1 z    0.000000    0.000000   -9.893693

 O #2 x   -9.750187    0.000000    0.000000    9.750187
 O #2 y    0.000000   -9.750187    0.000000    0.000000    9.750187
 O #2 z    0.000000    0.000000    9.893693    0.000000    0.000000   -9.893693




                Highest order reorthonormalization Hessian
                ------------------------------------------


           Symmetry 1

           C #1 z      O #2 z

 C #1 z    0.000000
 O #2 z    0.000000    0.000000


           Symmetry 2

           C #1 x      O #2 x

 C #1 x    0.000000
 O #2 x    0.000000    0.000000


           Symmetry 3

           C #1 y      O #2 y

 C #1 y    0.000000
 O #2 y    0.000000    0.000000




           C #1 x      C #1 y      C #1 z      O #2 x      O #2 y      O #2 z




                Electronic contributions to dipole moment
                -----------------------------------------

                               au             Debye

                    z     -0.75188414     -1.91109919

  Conversion factor used: 1 a.u. =   2.54174691 Debye 



   Electronic contributions to static part of dipole moment derivatives
   --------------------------------------------------------------------


                     Total dipole moment derivatives
                     -------------------------------


           Symmetry 1
                              Ez

               C #1 z    -5.61175894
               O #2 z    -8.38824106

           Symmetry 2
                              Ex

               C #1 x    -5.67179205
               O #2 x    -8.32820795

           Symmetry 3
                              Ey

               C #1 y    -5.67179205
               O #2 y    -8.32820795



                       Ex          Ey          Ez

      C #1    x   -5.671792    0.000000    0.000000
      C #1    y    0.000000   -5.671792    0.000000
      C #1    z    0.000000    0.000000   -5.611759

      O #2    x   -8.328208    0.000000    0.000000
      O #2    y    0.000000   -8.328208    0.000000
      O #2    z    0.000000    0.000000   -8.388241

 Evaluation of 1e integral derivatives required    1.74 seconds.
                    8815  records have been written to the Sort file.
  Total length of Sort file :             180513570  words.
 Evaluation of 2el integral derivatives

                      Two-electron integral gradient
                      ------------------------------

                         C #1 z    -8.3029433560
                         O #2 z     8.3029433560


 C #1       0.0000000000            0.0000000000           -8.3029433560
 O #2       0.0000000000            0.0000000000            8.3029433560


 Evaluation of 2e integral derivatives required  713.76 seconds.

                            Molecular gradient
                            ------------------

                         C #1 z     0.6515013332
                         O #2 z    -0.6515013332


 C #1       0.0000000000            0.0000000000            0.6515013332
 O #2       0.0000000000            0.0000000000           -0.6515013332


  Molecular gradient norm 0.921E+00

                            Molecular hessian
                            -----------------


           Symmetry 1

           C #1 z      O #2 z

 C #1 z   25.583462
 O #2 z  -25.583462   25.583462


           Symmetry 2

           C #1 x      O #2 x

 C #1 x    1.316944
 O #2 x   -1.316944    1.316944


           Symmetry 3

           C #1 y      O #2 y

 C #1 y    1.316944
 O #2 y   -1.316944    1.316944




           C #1 x      C #1 y      C #1 z      O #2 x      O #2 y      O #2 z

 C #1 x    1.316944
 C #1 y    0.000000    1.316944
 C #1 z    0.000000    0.000000   25.583462

 O #2 x   -1.316944    0.000000    0.000000    1.316944
 O #2 y    0.000000   -1.316944    0.000000    0.000000    1.316944
 O #2 z    0.000000    0.000000  -25.583462    0.000000    0.000000   25.583462




                           Total dipole moment
                           -------------------

                               au             Debye

                    z      0.35024148      0.89022521

  Conversion factor used: 1 a.u. =   2.54174691 Debye 



                     Total dipole moment derivatives
                     -------------------------------


           Symmetry 1
                              Ez

               C #1 z     0.64860186
               O #2 z    -0.64860186

           Symmetry 2
                              Ex

               C #1 x     0.12999587
               O #2 x    -0.12999587

           Symmetry 3
                              Ey

               C #1 y     0.12999587
               O #2 y    -0.12999587



                       Ex          Ey          Ez

      C #1    x    0.129996    0.000000    0.000000
      C #1    y    0.000000    0.129996    0.000000
      C #1    z    0.000000    0.000000    0.648602

      O #2    x   -0.129996    0.000000    0.000000
      O #2    y    0.000000   -0.129996    0.000000
      O #2    z    0.000000    0.000000   -0.648602

 @CHECKOUT-I, Total execution time (CPU/WALL):      715.49/     120.70 seconds.
--executable xvdint finished with status     0 in      120.91 seconds (walltime).
 --invoking executable--
/nfs/workspaces/public/cfour_mpi/bin/xjoda
  @GTFLGS-I, Hessian will be transformed to curvilinear coordinates.
  @GTFLGS-I, Hessian will be transformed to curvilinear coordinates.
  igrd and ihes are                      0                     1
  gradient from JOBARC 
   0.000000000000000   0.000000000000000   0.651501333202423
   0.000000000000000   0.000000000000000  -0.651501333202423
 
  @PROJFCM-I, Projecting force constant matrix onto totally symmetric subspace.
  Largest difference between matrix elements of symmetrized
  and unsymmetrized FCM :     0.2950750755E-11.
  read isotopes from ZMAT file 
 
  Summary of diagonal Born-Oppenheimer correction at the correlated level
  The total diagonal Born-Oppenheimer correction (DBOC) is:      0.0038686400 a.u.
  The total diagonal Born-Oppenheimer correction (DBOC) is:        849.068342 cm-1
  The total diagonal Born-Oppenheimer correction (DBOC) is:            10.157 kJ/mole
  hellooooooo 
  readis is  F
 
 @CHECKOUT-I, Total execution time (CPU/WALL):        0.01/       0.07 seconds.
--executable xjoda finished with status     0 in        0.17 seconds (walltime).
  The final electronic energy is      -113.151556822584396 a.u. 
  This computation required                         4445.41 seconds (walltime).
