 --invoking executable--
/nfs/workspaces/public/cfour_mpi/bin/xjoda


   *************************************************************************
         <<<     CCCCCC     CCCCCC   |||     CCCCCC     CCCCCC   >>>
       <<<      CCC        CCC       |||    CCC        CCC         >>>
      <<<      CCC        CCC        |||   CCC        CCC            >>>
    <<<        CCC        CCC        |||   CCC        CCC              >>>
      <<<      CCC        CCC        |||   CCC        CCC            >>>
       <<<      CCC        CCC       |||    CCC        CCC         >>>
         <<<     CCCCCC     CCCCCC   |||     CCCCCC     CCCCCC   >>>
   *************************************************************************

     ****************************************************************
     * CFOUR Coupled-Cluster techniques for Computational Chemistry *
     ****************************************************************
 

   Department of Chemistry                Institut fuer Physikalische Chemie
   University of Florida                  Universitaet Mainz
   Gainesville, FL 32611, USA             D-55099 Mainz, Germany

   Department of Chemistry                Fakultaet fuer Chemie und Biowiss.
   Johns Hopkins University               Karlsruher Institut fuer Technologie
   Baltimore, MD 21218, USA               D-76131 Karlsruhe, Germany

   Department of Chemistry                Department of Physical Chemistry
   Southern Methodist University          Eotvos Lorand University
   Dallas, TX 75275, USA                  H-1053 Budapest, Hungary

 
                       Version 2.1
 
                     vincent.theory.phys.ucl.ac.uk                     
                     Mon  3 Mar 14:16:09 GMT 2025                      
                     integer*8 version is running
 
********************************************************************************
*                          Input from ZMAT file                                *
********************************************************************************
Carbon Monoxide DBOC calculation                                                
C                                                                               
O 1 r                                                                           
                                                                                
r=1.6448275862068966                                                            
                                                                                
                                                                                
*CFOUR(CALC=CCSD,BASIS=AUG-PCVQZ,SCF_CONV=10                                    
CC_CONV=14,DBOC=ON,MEMORY=500000000                                             
ZFIELD=-200)                                                                    
                                                                                
%isotopes                                                                       
12                                                                              
18                                                                              
********************************************************************************
  @GTFLGS-I, Hessian will be transformed to curvilinear coordinates.
    -------------------------------------------------------------------
                    CFOUR Control Parameters 
    -------------------------------------------------------------------
        External           Internal           Value            Units
          Name               Name
    -------------------------------------------------------------------
       ABCDTYPE             IABCDT         STANDARD    [  0]    ***   
       ANHARMONIC           IANHAR         OFF         [  0]    ***   
       ANH_ALGORIT          IANALG         STANDARD    [  0]    ***   
       ANH_DERIVAT          IANDER         SECOND      [  1]    ***   
       ANH_MODE             ANHMOD         VIBRATION   [  0]    ***   
       ANH_STEPSIZ          ICUBST             50000          x 10-6  
       ANH_SYMMETR          IANHSM         ABELIAN     [  0]    ***   
       AO_LADDERS           IAOLAD         SINGLEPASS  [  1]    ***   
       AV_SCF               IAVSCF         OFF         [  0]    ***   
       BASIS                IBASIS         AUG-PCVQZ   [ 52]    ***   
       BOTHVECTORS          BOTHVC         OFF         [  0]    ***   
       BOX_POTENT           IPIAB          OFF         [  0]    ***   
       BREIT                IBREIT         OFF         [  0]    ***   
       BRUCK_CONV           IBRTOL          10D-  4             ***   
       BRUECKNER            IBRKNR         OFF         [  0]    ***   
       BUFFERSIZE           IBUFFS              4096            ***   
       CACHE_RECS           ICHREC             10               ***   
       CALCLEVEL            ICLLVL         CCSD        [ 10]    ***   
       CCORBOPT             ICCORB         OFF         [  0]  x 0.01  
       CC_CONV              ICCCNV          10D- 14             ***   
       CC_EXPORDER          ICCEOR              5               ***   
       CC_EXTRAPOL          ICCEXT         DIIS        [  1]    ***   
       CC_GUESS             ICCGES         MP2         [  0]    ***   
       CC_MAXCYC            ICCCYC            100              cycles 
       CC_PROGRAM           ICCPRO         VCC         [  0]    ***   
       CHARGE               ICHRGE              0               ***   
       CHOLESKY             ICHOLE         OFF         [  0]    ***   
       CIS_CONV             ICISTL              5               ***   
       COMM_SIZE            IPSIZE            ***               ***   
       CONSTANT             ICONST         OLD         [  1]    ***   
       CONTINUUM            ICONTU         NONE        [  0]    ***   
       CONTRACTION          ICNTYP         GENERAL     [  1]    ***   
       COORDINATES          ICOORD         INTERNAL    [  0]    ***   
       CPHF_CONVER          ICPHFT          10D- 16             ***   
       CPHF_MAXCYC          ICPHFC             64              cycles 
       CUBIC                ICUBIC         OFF         [  0]    ***   
       CURVILINEAR          ICURVY         ON          [  1]    ***   
       DBOC                 IDBOC          ON          [  1]    ***   
       DCT                  IDCT           OFF         [  0]    ***   
       DERIV_LEV            IDRLVL         SECOND      [  2]    ***   
       DEVMEM_SIZE          IDVMEM          50000000           MByte  
       DIAG_MRCC            IEOMST          10D-  0             ***   
       DIFF_TYPE            IDIFTY         RELAXED     [  0]    ***   
       DIRECT               IDIRCT         OFF         [  0]    ***   
       DROPMO               IDRPMO      NONE         
       ECP                  IECP           OFF         [  0]    ***   
       EIGENVECTOR          IVEC                1               ***   
       EL_ANHARM            IELANH         OFF         [  0]    ***   
       EOMFOLLOW            IEOMSR         ENERGY      [  0]    ***   
       EOMIP                IEOMIP         OFF         [  0]    ***   
       EOMLEVEL             HBARFM         SAME        [  0]    ***   
       EOM_MRCC             IMRCCE         NEW         [  1]    ***   
       EOM_NONIT            EOMNON         OFF         [  0]    ***   
       EOM_NSING            IEOMSI          10D-  0             ***   
       EOM_NSTATES          IMRCCD         DAVIDSON    [  0]    ***   
       EOM_NTRIP            IEOMTR          10D-  0             ***   
       EOM_ORDER            IEXORD         ENERGY      [  0]    ***   
       EOM_PROPSTA          IEOMST              0               ***   
       ESTATE_CONV          IEXTOL          10D-  5             ***   
       ESTATE_DIAG          IEXDIG         ITERATIVE   [  0]    ***   
       ESTATE_LOCK          IESLOC         ON          [  1]    ***   
       ESTATE_MAXC          IEXMXC             40               ***   
       ESTATE_PROP          IEXPRP         OFF         [  0]    ***   
       EVAL_HESS            IRECAL              0            # of cyc.
       EXCITATION           IEXCIT              0               ***   
       EXCITE               IEXCIT         NONE        [  0]    ***   
       EXTERN_POT           IEXPOT         OFF         [  0]    ***   
       FCGRADNEW            IFCGNW         OFF         [  0]    ***   
       FC_FIELD             IFINFC              0             x 10-6  
       FD_CALTYPE           IFDCAL         GRADONLY    [  0]    ***   
       FD_PROJECT           IFDPRJ         OFF         [  1]    ***   
       FD_STEPSIZE          IDISFD              0            10-4 bohr
       FD_USEGROUP          IFDGRP         FULL        [  0]    ***   
       FILE_RECSIZ          IFLREC              4096           words  
       FINITE_PERT          IFIPER              0             x 10-6  
       FIXGEOM              IFIXGM         OFF         [  0]    ***   
       FOCK                 IFOCK          AO          [  1]    ***   
       FREQ_ALGORI          IVIALG         STANDARD    [  0]    ***   
       FROZEN_CORE          IFROCO         OFF         [  0]    ***   
       GAMMA_ABCD           IGABCD         STORE       [  0]    ***   
       GAMMA_ABCI           IGABCI         STORE       [  0]    ***   
       GENBAS_1             IGNBS1              0               ***   
       GENBAS_2             IGNBS2              0               ***   
       GENBAS_3             IGNBS3              0               ***   
       GENBAS_4             IGNBS4              0               ***   
       GEO_CONV             ICONTL              5              H/bohr 
       GEO_MAXCYC           IOPTCY             50               ***   
       GEO_MAXSTEP          IMXSTP            300            millibohr
       GEO_METHOD           INR            SINGLE_POINT[  5]    ***   
       GIAO                 IGIAO          OFF         [  1]    ***   
       GIMIC                IGIMIC         OFF         [  0]    ***   
       GRID                 IGRID          OFF         [  0]    ***   
       GRID_ALGO            IGALGO         SERIAL      [  0]    ***   
       GUESS                IGUESS         MOREAD      [  0]    ***   
       HBAR                 IHBAR          OFF         [  0]    ***   
       HESS_TYPE            IHESTP         SCF         [  0]    ***   
       HF2_FILE             IHF2Fl         USE         [  1]    ***   
       HFSTABILITY          ISTABL         OFF         [  0]    ***   
       INCORE               INCORE         OFF         [  0]    ***   
       INPUT_MRCC           IMRCC          ON          [  1]    ***   
       INTEGRALS            INTTYP         VMOL        [  1]    ***   
       JODA_PRINT           IJPRNT              0               ***   
       KEYWORD_OUT          IDMPKW         NO          [  0]    ***   
       LINDEP_TOL           ILINDP              8               ***   
       LINEQ_CONV           IZTACN          10D-  7           cycles  
       LINEQ_EXPOR          ILMAXD              5               ***   
       LINEQ_MAXCY          ILMAXC            100               ***   
       LINEQ_TYPE           ILTYPE         DIIS        [  1]    ***   
       LOCK_ORBOCC          ILOCOC         OFF         [  0]    ***   
       MEMORY_SIZE          IMEMSZ         500000000           words  
       MEM_UNIT             IMEMU          INTEGERWORDS[  0]    ***   
       MRCC                 IMRCCC         OFF         [  0]    ***   
       MULTIPLICTY          IMULTP              1               ***   
       NACOUPLING           IVCOUP         OFF         [  0]    ***   
       NEGEVAL              IDIE           ABORT       [  0]    ***   
       NEWNORM              INEWNO         OFF         [  0]    ***   
       NON-HF               INONHF         OFF         [  0]    ***   
       NTOP_TAMP            ITOPT2             15               ***   
       NUC_MODEL            INUCMO         POINT       [  0]    ***   
       OCCUPATION           IOCCU   ESTIMATED BY SCF 
       OPEN-SHELL           IOPEN          SPIN-ORBITAL[  0]    ***   
       OPTVIB               IOPTVB         OFF         [  0]    ***   
       ORBITALS             IORBTP         STANDARD    [  0]    ***   
       PARALLEL             IPARAL         ON          [  1]    ***   
       PARA_INT             IPINTS         ON          [  1]    ***   
       PARA_PRINT           IPPRIN              0               ***   
       PERT_ORB             IPTORB         STANDARD    [  0]    ***   
       POINTS               IGRDFD              0               ***   
       PRINT                IPRNT               0               ***   
       PROPS                IPROPS         OFF         [  0]    ***   
       PROP_INTEGR          IINTYP         INTERNAL    [  0]    ***   
       PSI                  IPSI           OFF         [  0]    ***   
       QC_ALG               IQCALG         FLM         [  0]    ***   
       QC_LINALG            IQCLIN         TRIDIAG     [  2]    ***   
       QC_MAXCYC            IQCMAX          10D-100           cycles  
       QC_MAXSCFCY          IQCMSC          10D- 15           cycles  
       QC_RTRUST            IQCRTR          10D-  0           x 10-3  
       QC_SKIPSCF           IQCSKI         OFF         [  0]    ***   
       QC_START             IQCSTA          10D-  1             ***   
       QRHFGUESS            IQGUES         OFF         [  0]    ***   
       QUARTIC              IQUART         OFF         [  0]    ***   
       RAMAN_INT            IRAMIN         OFF         [  0]    ***   
       RAMAN_ORB            IRAMRE         UNRELAXED   [  0]    ***   
       RDO                  IRDOFM         ON          [  1]    ***   
       REDUCE_REPR          REDREP         Ir          [  0]    ***   
       REFERENCE            IREFNC         RHF         [  0]    ***   
       RELATIVIST           IRELAT         OFF         [  0]    ***   
       RELAX_DENS           IRDENS         ON          [  1]    ***   
       RESET_FLAGS          IRESET         OFF         [  0]    ***   
       RESTART_CC           ICCRES         OFF         [  0]    ***   
       ROT_EVEC             ROTVEC              0               ***   
       SAVE_INTS            ISVINT         OFF         [  0]    ***   
       SCALE_ON             ISTCRT              0               ***   
       SCF_CONV             ISCFCV          10D- 10             ***   
       SCF_DAMPING          IDAMP               0             x 10-3  
       SCF_EXPORDE          IRPPOR              6               ***   
       SCF_EXPSTAR          IRPPLS              8               ***   
       SCF_EXTRAPO          IRPP           ON          [  1]    ***   
       SCF_MAXCYC           ISCFCY            150              cycles 
       SCF_NOSTOP           ISCFST         OFF         [  0]    ***   
       SCF_PRINT            ISCFPR              0               ***   
       SCF_PROG             ISCFPR         SCF         [  0]    ***   
       SD_FIELD             IFINSD              0             x 10-6  
       SOPERT               IPERSO         OFF         [  0]    ***   
       SPHERICAL            IDFGHI         ON          [  1]    ***   
       SPINORBIT            ISOCAL         OFF         [  0]    ***   
       SPINROTATIO          ISRCON         OFF         [  0]    ***   
       SPIN_FLIP            ISPFLP         OFF         [  0]    ***   
       SPIN_ORBIT           ISPORB         OFF         [  0]    ***   
       SPIN_SCAL            ISCSMP         OFF         [  0]    ***   
       STEEPSCALE           ISTPSC              1000          x 10-3  
       SUBGROUP             ISUBGP         DEFAULT     [  0]    ***   
       SUBGRPAXIS           ISBXYZ         X           [  0]    ***   
       SYMMETRY             ISYM           ON          [  0]    ***   
       SYM_CHECK            ISYMCK         OVERRIDE    [  1]    ***   
       T3_EXTRAPOL          IT3EXT         OFF         [  0]    ***   
       T4_EXTRAPOL          IT4EXP         OFF         [  0]    ***   
       TAMP_SUM             IEVERY              5               ***   
       TESTSUITE            ITESTS         OFF         [  0]    ***   
       THERMOCH             ITHERM         OFF         [  0]    ***   
       TOL_CHOLESK          ITOLCH          10D-  4             ***   
       TRANGRAD             IRESRM         OFF         [  0]    ***   
       TRANS_INV            ITRAIN         IGNORE      [  1]    ***   
       TREAT_PERT           ITREAT         SIMULTANEOUS[  0]    ***   
       TRIP_ALGORI          ITRALG         NORMAL      [  0]    ***   
       UIJ_THRESHO          IUIJTH              1               ***   
       UNITS                IUNITS         ANGSTROM    [  0]    ***   
       UNOS                 IUNOS          OFF         [  0]    ***   
       UPDATE_HESS          IHUPDT         ON          [  1]    ***   
       VIBPHASE             ISETPH         STANDARD    [  0]    ***   
       VIBRATION            IVIB           ANALYTIC    [  1]    ***   
       VIB_ALGORIT          IGEALG         STANDARD    [  0]    ***   
       VNATORB              IVNORB         OFF         [  0]    ***   
       VTRAN                IVTRAN         FULL/PARTIAL[  0]    ***   
       XFIELD               IXEFLD              0             x 10-6  
       XFORM_TOL            IXFTOL          10D- 11             ***   
       YFIELD               IYEFLD              0             x 10-6  
       ZFIELD               IZEFLD            ***             x 10-6  
       ZSCALE_EXP           IZEXPS         OFF         [  0]    ***   
    -------------------------------------------------------------------
   2 entries found in Z-matrix 
   Job Title : Carbon Monoxide DBOC calculation                                                
   There are  1 unique internal coordinates.
   Of these,  0 will be optimized.
   User supplied Z-matrix: 
--------------------------------------------------------------------------------
       SYMBOL    BOND      LENGTH    ANGLE     ANGLE     DIHED     ANGLE
                  TO      (ANGST)    WRT      (DEG)      WRT      (DEG)
--------------------------------------------------------------------------------
        C    
        O          1         r    
                  *Initial values for internal coordinates* 
                      Name             Value
                        r               1.6448275862
--------------------------------------------------------------------------------
  read isotopes from ZMAT file 
   Rotational constants (in cm-1): 
          0.8654289136             0.8654289136
   Rotational constants (in MHz): 
      25944.9097577210         25944.9097577210
********************************************************************************
   The full molecular point group is CXv .
   The largest Abelian subgroup of the full molecular point group is C2v .
   The computational point group is C2v .
********************************************************************************
--------------------------------------------------------------------------------
   Analysis of internal coordinates specified by Z-matrix 
--------------------------------------------------------------------------------
   *The nuclear repulsion energy is   15.442652477987419 a.u.
   *There is   1 degree of freedom within the tot. symm. molecular subspace.
   *Z-matrix requests optimization of   0 coordinates.
   *The optimization is constrained.
   *The following   1 parameters can have non-zero 
    derivatives within the totally symmetric subspace:
             r    [ 1]
   *The following   0 parameters are to be optimized:

   *The following coordinates must be varied in an  unconstrained optimization.
             r    [ 1]
--------------------------------------------------------------------------------


 ----------------------------------------------------------------
         Coordinates used in calculation (QCOMP) 
 ----------------------------------------------------------------
 Z-matrix   Atomic            Coordinates (in bohr)
  Symbol    Number           X              Y              Z
 ----------------------------------------------------------------
     C         6        -0.00000000     0.00000000     1.86492979
     O         8         0.00000000     0.00000000    -1.24334453
 ----------------------------------------------------------------
 
   Interatomic distance matrix (Angstroms) 
 
                 C             O    
                [ 1]        [ 2]
  C    [ 1]     0.00000
  O    [ 2]     1.64483     0.00000
 rotcon2
   Rotational constants (in cm-1): 
          0.8654289136             0.0000000000
   Rotational constants (in MHz): 
      25944.9097577210             0.0000000000
  ECPDATA file not present.   Using default ECPDATA. 
  @GTFLGS-I, Hessian will be transformed to curvilinear coordinates.
  There are  218 basis functions.
 @CHECKOUT-I, Total execution time (CPU/WALL):        0.16/       0.24 seconds.
--executable xjoda finished with status     0 in        0.29 seconds (walltime).
 --invoking executable--
/nfs/workspaces/public/cfour_mpi/bin/xvmol
 SERIAL VERSION OF MOLECULE STARTED
********************************************************************************
                    INPUT FROM MOL FILE
********************************************************************************
INTGRL        1    0    1    0    0    0    0    0    0                         
         *** CFOUR Program System (Release V0.1) ***                            
Carbon Monoxide DBOC calculation                                                
    2    2 X  Y       0.10E-08              0    0                              
   9999.00      3.00                                                            
          6.00000000    1    5    1    1    1    1    1                         
C #1  -0.000000000000000   0.000000000000000   1.864929785735284                
   16    9                                                                      
   33980.0000000000       9.100000000000000E-005 -1.900000000000000E-005        
  0.000000000000000E+000  0.000000000000000E+000  0.000000000000000E+000        
  0.000000000000000E+000  0.000000000000000E+000  0.000000000000000E+000        
  0.000000000000000E+000                                                        
   5089.00000000000       7.040000000000000E-004 -1.510000000000000E-004        
  0.000000000000000E+000  0.000000000000000E+000  0.000000000000000E+000        
  0.000000000000000E+000  0.000000000000000E+000  0.000000000000000E+000        
  0.000000000000000E+000                                                        
   1157.00000000000       3.693000000000000E-003 -7.850000000000000E-004        
  0.000000000000000E+000  0.000000000000000E+000  0.000000000000000E+000        
  0.000000000000000E+000  0.000000000000000E+000  0.000000000000000E+000        
  0.000000000000000E+000                                                        
   326.600000000000       1.536000000000000E-002 -3.324000000000000E-003        
  0.000000000000000E+000  0.000000000000000E+000  0.000000000000000E+000        
  0.000000000000000E+000  0.000000000000000E+000  0.000000000000000E+000        
  0.000000000000000E+000                                                        
   106.100000000000       5.292900000000000E-002 -1.151200000000000E-002        
  0.000000000000000E+000  0.000000000000000E+000  0.000000000000000E+000        
  0.000000000000000E+000  0.000000000000000E+000  0.000000000000000E+000        
  0.000000000000000E+000                                                        
   38.1100000000000       0.147043000000000      -3.416000000000000E-002        
  0.000000000000000E+000  0.000000000000000E+000  0.000000000000000E+000        
  0.000000000000000E+000  0.000000000000000E+000  0.000000000000000E+000        
  0.000000000000000E+000                                                        
   14.7500000000000       0.305631000000000      -7.717300000000001E-002        
  0.000000000000000E+000  0.000000000000000E+000  0.000000000000000E+000        
  0.000000000000000E+000  0.000000000000000E+000  0.000000000000000E+000        
  0.000000000000000E+000                                                        
   6.03500000000000       0.399345000000000      -0.141493000000000             
  0.000000000000000E+000  0.000000000000000E+000  0.000000000000000E+000        
  0.000000000000000E+000  0.000000000000000E+000  0.000000000000000E+000        
  0.000000000000000E+000                                                        
   2.53000000000000       0.217051000000000      -0.118019000000000             
  0.000000000000000E+000  0.000000000000000E+000  0.000000000000000E+000        
  0.000000000000000E+000  0.000000000000000E+000  0.000000000000000E+000        
  0.000000000000000E+000                                                        
  0.735500000000000       1.589400000000000E-002  0.273806000000000             
   1.00000000000000       0.000000000000000E+000  0.000000000000000E+000        
  0.000000000000000E+000  0.000000000000000E+000  0.000000000000000E+000        
  0.000000000000000E+000                                                        
  0.290500000000000      -3.084000000000000E-003  0.586510000000000             
  0.000000000000000E+000   1.00000000000000       0.000000000000000E+000        
  0.000000000000000E+000  0.000000000000000E+000  0.000000000000000E+000        
  0.000000000000000E+000                                                        
  0.111100000000000       9.779999999999999E-004  0.285430000000000             
  0.000000000000000E+000  0.000000000000000E+000   1.00000000000000             
  0.000000000000000E+000  0.000000000000000E+000  0.000000000000000E+000        
  0.000000000000000E+000                                                        
   7.21600000000000       0.000000000000000E+000  0.000000000000000E+000        
  0.000000000000000E+000  0.000000000000000E+000  0.000000000000000E+000        
   1.00000000000000       0.000000000000000E+000  0.000000000000000E+000        
  0.000000000000000E+000                                                        
   19.5700000000000       0.000000000000000E+000  0.000000000000000E+000        
  0.000000000000000E+000  0.000000000000000E+000  0.000000000000000E+000        
  0.000000000000000E+000   1.00000000000000       0.000000000000000E+000        
  0.000000000000000E+000                                                        
   53.0730000000000       0.000000000000000E+000  0.000000000000000E+000        
  0.000000000000000E+000  0.000000000000000E+000  0.000000000000000E+000        
  0.000000000000000E+000  0.000000000000000E+000   1.00000000000000             
  0.000000000000000E+000                                                        
  4.145000000000000E-002  0.000000000000000E+000  0.000000000000000E+000        
  0.000000000000000E+000  0.000000000000000E+000  0.000000000000000E+000        
  0.000000000000000E+000  0.000000000000000E+000  0.000000000000000E+000        
   1.00000000000000                                                             
   10    8                                                                      
   34.5100000000000       5.378000000000000E-003  0.000000000000000E+000        
  0.000000000000000E+000  0.000000000000000E+000  0.000000000000000E+000        
  0.000000000000000E+000  0.000000000000000E+000  0.000000000000000E+000        
   7.91500000000000       3.613200000000000E-002  0.000000000000000E+000        
  0.000000000000000E+000  0.000000000000000E+000  0.000000000000000E+000        
  0.000000000000000E+000  0.000000000000000E+000  0.000000000000000E+000        
   2.36800000000000       0.142493000000000       0.000000000000000E+000        
  0.000000000000000E+000  0.000000000000000E+000  0.000000000000000E+000        
  0.000000000000000E+000  0.000000000000000E+000  0.000000000000000E+000        
  0.813200000000000       0.342150000000000        1.00000000000000             
  0.000000000000000E+000  0.000000000000000E+000  0.000000000000000E+000        
  0.000000000000000E+000  0.000000000000000E+000  0.000000000000000E+000        
  0.289000000000000       0.463864000000000       0.000000000000000E+000        
   1.00000000000000       0.000000000000000E+000  0.000000000000000E+000        
  0.000000000000000E+000  0.000000000000000E+000  0.000000000000000E+000        
  0.100700000000000       0.250028000000000       0.000000000000000E+000        
  0.000000000000000E+000   1.00000000000000       0.000000000000000E+000        
  0.000000000000000E+000  0.000000000000000E+000  0.000000000000000E+000        
   8.18200000000000       0.000000000000000E+000  0.000000000000000E+000        
  0.000000000000000E+000  0.000000000000000E+000   1.00000000000000             
  0.000000000000000E+000  0.000000000000000E+000  0.000000000000000E+000        
   24.1860000000000       0.000000000000000E+000  0.000000000000000E+000        
  0.000000000000000E+000  0.000000000000000E+000  0.000000000000000E+000        
   1.00000000000000       0.000000000000000E+000  0.000000000000000E+000        
   71.4940000000000       0.000000000000000E+000  0.000000000000000E+000        
  0.000000000000000E+000  0.000000000000000E+000  0.000000000000000E+000        
  0.000000000000000E+000   1.00000000000000       0.000000000000000E+000        
  3.218000000000000E-002  0.000000000000000E+000  0.000000000000000E+000        
  0.000000000000000E+000  0.000000000000000E+000  0.000000000000000E+000        
  0.000000000000000E+000  0.000000000000000E+000   1.00000000000000             
    6    6                                                                      
   1.84800000000000        1.00000000000000       0.000000000000000E+000        
  0.000000000000000E+000  0.000000000000000E+000  0.000000000000000E+000        
  0.000000000000000E+000                                                        
  0.649000000000000       0.000000000000000E+000   1.00000000000000             
  0.000000000000000E+000  0.000000000000000E+000  0.000000000000000E+000        
  0.000000000000000E+000                                                        
  0.228000000000000       0.000000000000000E+000  0.000000000000000E+000        
   1.00000000000000       0.000000000000000E+000  0.000000000000000E+000        
  0.000000000000000E+000                                                        
   8.65600000000000       0.000000000000000E+000  0.000000000000000E+000        
  0.000000000000000E+000   1.00000000000000       0.000000000000000E+000        
  0.000000000000000E+000                                                        
   33.2130000000000       0.000000000000000E+000  0.000000000000000E+000        
  0.000000000000000E+000  0.000000000000000E+000   1.00000000000000             
  0.000000000000000E+000                                                        
  7.660000000000000E-002  0.000000000000000E+000  0.000000000000000E+000        
  0.000000000000000E+000  0.000000000000000E+000  0.000000000000000E+000        
   1.00000000000000                                                             
    4    4                                                                      
   1.41900000000000        1.00000000000000       0.000000000000000E+000        
  0.000000000000000E+000  0.000000000000000E+000                                
  0.485000000000000       0.000000000000000E+000   1.00000000000000             
  0.000000000000000E+000  0.000000000000000E+000                                
   24.6940000000000       0.000000000000000E+000  0.000000000000000E+000        
   1.00000000000000       0.000000000000000E+000                                
  0.187000000000000       0.000000000000000E+000  0.000000000000000E+000        
  0.000000000000000E+000   1.00000000000000                                     
    2    2                                                                      
   1.01100000000000        1.00000000000000       0.000000000000000E+000        
  0.424000000000000       0.000000000000000E+000   1.00000000000000             
          8.00000000    1    5    1    1    1    1    1                         
O #2   0.000000000000000   0.000000000000000  -1.243344525845653                
   16    9                                                                      
   61420.0000000000       9.000000000000001E-005 -2.000000000000000E-005        
  0.000000000000000E+000  0.000000000000000E+000  0.000000000000000E+000        
  0.000000000000000E+000  0.000000000000000E+000  0.000000000000000E+000        
  0.000000000000000E+000                                                        
   9199.00000000000       6.980000000000001E-004 -1.590000000000000E-004        
  0.000000000000000E+000  0.000000000000000E+000  0.000000000000000E+000        
  0.000000000000000E+000  0.000000000000000E+000  0.000000000000000E+000        
  0.000000000000000E+000                                                        
   2091.00000000000       3.664000000000000E-003 -8.290000000000000E-004        
  0.000000000000000E+000  0.000000000000000E+000  0.000000000000000E+000        
  0.000000000000000E+000  0.000000000000000E+000  0.000000000000000E+000        
  0.000000000000000E+000                                                        
   590.900000000000       1.521800000000000E-002 -3.508000000000000E-003        
  0.000000000000000E+000  0.000000000000000E+000  0.000000000000000E+000        
  0.000000000000000E+000  0.000000000000000E+000  0.000000000000000E+000        
  0.000000000000000E+000                                                        
   192.300000000000       5.242300000000000E-002 -1.215600000000000E-002        
  0.000000000000000E+000  0.000000000000000E+000  0.000000000000000E+000        
  0.000000000000000E+000  0.000000000000000E+000  0.000000000000000E+000        
  0.000000000000000E+000                                                        
   69.3200000000000       0.145921000000000      -3.626100000000000E-002        
  0.000000000000000E+000  0.000000000000000E+000  0.000000000000000E+000        
  0.000000000000000E+000  0.000000000000000E+000  0.000000000000000E+000        
  0.000000000000000E+000                                                        
   26.9700000000000       0.305258000000000      -8.299200000000000E-002        
  0.000000000000000E+000  0.000000000000000E+000  0.000000000000000E+000        
  0.000000000000000E+000  0.000000000000000E+000  0.000000000000000E+000        
  0.000000000000000E+000                                                        
   11.1000000000000       0.398508000000000      -0.152090000000000             
  0.000000000000000E+000  0.000000000000000E+000  0.000000000000000E+000        
  0.000000000000000E+000  0.000000000000000E+000  0.000000000000000E+000        
  0.000000000000000E+000                                                        
   4.68200000000000       0.216980000000000      -0.115331000000000             
  0.000000000000000E+000  0.000000000000000E+000  0.000000000000000E+000        
  0.000000000000000E+000  0.000000000000000E+000  0.000000000000000E+000        
  0.000000000000000E+000                                                        
   1.42800000000000       1.759400000000000E-002  0.288979000000000             
   1.00000000000000       0.000000000000000E+000  0.000000000000000E+000        
  0.000000000000000E+000  0.000000000000000E+000  0.000000000000000E+000        
  0.000000000000000E+000                                                        
  0.554700000000000      -2.502000000000000E-003  0.586128000000000             
  0.000000000000000E+000   1.00000000000000       0.000000000000000E+000        
  0.000000000000000E+000  0.000000000000000E+000  0.000000000000000E+000        
  0.000000000000000E+000                                                        
  0.206700000000000       9.540000000000000E-004  0.277624000000000             
  0.000000000000000E+000  0.000000000000000E+000   1.00000000000000             
  0.000000000000000E+000  0.000000000000000E+000  0.000000000000000E+000        
  0.000000000000000E+000                                                        
   12.9740000000000       0.000000000000000E+000  0.000000000000000E+000        
  0.000000000000000E+000  0.000000000000000E+000  0.000000000000000E+000        
   1.00000000000000       0.000000000000000E+000  0.000000000000000E+000        
  0.000000000000000E+000                                                        
   34.9000000000000       0.000000000000000E+000  0.000000000000000E+000        
  0.000000000000000E+000  0.000000000000000E+000  0.000000000000000E+000        
  0.000000000000000E+000   1.00000000000000       0.000000000000000E+000        
  0.000000000000000E+000                                                        
   93.8810000000000       0.000000000000000E+000  0.000000000000000E+000        
  0.000000000000000E+000  0.000000000000000E+000  0.000000000000000E+000        
  0.000000000000000E+000  0.000000000000000E+000   1.00000000000000             
  0.000000000000000E+000                                                        
  6.959000000000000E-002  0.000000000000000E+000  0.000000000000000E+000        
  0.000000000000000E+000  0.000000000000000E+000  0.000000000000000E+000        
  0.000000000000000E+000  0.000000000000000E+000  0.000000000000000E+000        
   1.00000000000000                                                             
   10    8                                                                      
   63.4200000000000       6.044000000000000E-003  0.000000000000000E+000        
  0.000000000000000E+000  0.000000000000000E+000  0.000000000000000E+000        
  0.000000000000000E+000  0.000000000000000E+000  0.000000000000000E+000        
   14.6600000000000       4.179900000000000E-002  0.000000000000000E+000        
  0.000000000000000E+000  0.000000000000000E+000  0.000000000000000E+000        
  0.000000000000000E+000  0.000000000000000E+000  0.000000000000000E+000        
   4.45900000000000       0.161143000000000       0.000000000000000E+000        
  0.000000000000000E+000  0.000000000000000E+000  0.000000000000000E+000        
  0.000000000000000E+000  0.000000000000000E+000  0.000000000000000E+000        
   1.53100000000000       0.356731000000000        1.00000000000000             
  0.000000000000000E+000  0.000000000000000E+000  0.000000000000000E+000        
  0.000000000000000E+000  0.000000000000000E+000  0.000000000000000E+000        
  0.530200000000000       0.448309000000000       0.000000000000000E+000        
   1.00000000000000       0.000000000000000E+000  0.000000000000000E+000        
  0.000000000000000E+000  0.000000000000000E+000  0.000000000000000E+000        
  0.175000000000000       0.244940000000000       0.000000000000000E+000        
  0.000000000000000E+000   1.00000000000000       0.000000000000000E+000        
  0.000000000000000E+000  0.000000000000000E+000  0.000000000000000E+000        
   14.4750000000000       0.000000000000000E+000  0.000000000000000E+000        
  0.000000000000000E+000  0.000000000000000E+000   1.00000000000000             
  0.000000000000000E+000  0.000000000000000E+000  0.000000000000000E+000        
   42.7300000000000       0.000000000000000E+000  0.000000000000000E+000        
  0.000000000000000E+000  0.000000000000000E+000  0.000000000000000E+000        
   1.00000000000000       0.000000000000000E+000  0.000000000000000E+000        
   126.140000000000       0.000000000000000E+000  0.000000000000000E+000        
  0.000000000000000E+000  0.000000000000000E+000  0.000000000000000E+000        
  0.000000000000000E+000   1.00000000000000       0.000000000000000E+000        
  5.348000000000000E-002  0.000000000000000E+000  0.000000000000000E+000        
  0.000000000000000E+000  0.000000000000000E+000  0.000000000000000E+000        
  0.000000000000000E+000  0.000000000000000E+000   1.00000000000000             
    6    6                                                                      
   3.77500000000000        1.00000000000000       0.000000000000000E+000        
  0.000000000000000E+000  0.000000000000000E+000  0.000000000000000E+000        
  0.000000000000000E+000                                                        
   1.30000000000000       0.000000000000000E+000   1.00000000000000             
  0.000000000000000E+000  0.000000000000000E+000  0.000000000000000E+000        
  0.000000000000000E+000                                                        
  0.444000000000000       0.000000000000000E+000  0.000000000000000E+000        
   1.00000000000000       0.000000000000000E+000  0.000000000000000E+000        
  0.000000000000000E+000                                                        
   14.9270000000000       0.000000000000000E+000  0.000000000000000E+000        
  0.000000000000000E+000   1.00000000000000       0.000000000000000E+000        
  0.000000000000000E+000                                                        
   57.5440000000000       0.000000000000000E+000  0.000000000000000E+000        
  0.000000000000000E+000  0.000000000000000E+000   1.00000000000000             
  0.000000000000000E+000                                                        
  0.154000000000000       0.000000000000000E+000  0.000000000000000E+000        
  0.000000000000000E+000  0.000000000000000E+000  0.000000000000000E+000        
   1.00000000000000                                                             
    4    4                                                                      
   2.66600000000000        1.00000000000000       0.000000000000000E+000        
  0.000000000000000E+000  0.000000000000000E+000                                
  0.859000000000000       0.000000000000000E+000   1.00000000000000             
  0.000000000000000E+000  0.000000000000000E+000                                
   26.4830000000000       0.000000000000000E+000  0.000000000000000E+000        
   1.00000000000000       0.000000000000000E+000                                
  0.324000000000000       0.000000000000000E+000  0.000000000000000E+000        
  0.000000000000000E+000   1.00000000000000                                     
    2    2                                                                      
   1.84600000000000        1.00000000000000       0.000000000000000E+000        
  0.714000000000000       0.000000000000000E+000   1.00000000000000             
FINISH                                                                          
 
********************************************************************************
 ONE- AND TWO-ELECTRON INTEGRALS OVER SYMMETRY-ADAPTED AOS ARE CALCULATED.

  SPHERICAL HARMONICS ARE USED.
  
  INTEGRALS LESS THAN  0.10E-13 ARE NEGLECTED.

  NUCLEAR REPULSION ENERGY :   15.4426524780 A.U.
  @MOLECU-I, ONE ELECTRON INTEGRALS (CPU/WALL):        0.06/       0.07 SECONDS.
  @TWOEL-I,    4413699 INTEGRALS OF SYMMETRY TYPE  I I I I
  @TWOEL-I,   19047684 INTEGRALS OF SYMMETRY TYPE  I J I J
  @TWOEL-I,   10029408 INTEGRALS OF SYMMETRY TYPE  I I J J
  @TWOEL-I,   14072863 INTEGRALS OF SYMMETRY TYPE  I J K L
  @TWOEL-I, TOTAL NUMBER OF 2-E INTEGRALS   47563654.
  @MOLECU-I, TWO ELECTRON INTEGRALS (CPU/WALL):      205.91/      27.86 SECONDS.
 @CHECKOUT-I, Total execution time (CPU/WALL):      205.99/      27.96 seconds.

Running with 14 threads/proc

--executable xvmol finished with status     0 in       28.03 seconds (walltime).
 --invoking executable--
/nfs/workspaces/public/cfour_mpi/bin/xvmol2ja
 @GETMEM-I,  Allocated    3814 MB of main memory.
 @CHECKOUT-I, Total execution time (CPU/WALL):        0.15/       0.03 seconds.
--executable xvmol2ja finished with status     0 in        0.07 seconds (walltime).
 --invoking executable--
/nfs/workspaces/public/cfour_mpi/bin/xvprop
 @GETMEM-I,  Allocated    3814 MB of main memory.
   Property integrals will be calculated.
    --------------------------------------------------------------
                                   Property evaluated at 
    Property type                X             Y             Z
    --------------------------------------------------------------
    Dipole moment               ----          ----          ----  
    Quadrupole moment           ----          ----          ----  
    Octopole moment             ----          ----          ----  
    Relativisitic corr.         ----          ----          ----  
    Second moment            0.0000000     0.0000000     0.0000000
    Electron density         0.0000000     0.0000000     1.8649298
    Electron density         0.0000000     0.0000000    -1.2433445
    Field gradient           0.0000000     0.0000000     1.8649298
    Field gradient           0.0000000     0.0000000    -1.2433445
    Potential                0.0000000     0.0000000     1.8649298
    Potential                0.0000000     0.0000000    -1.2433445
    --------------------------------------------------------------
 @CHECKOUT-I, Total execution time (CPU/WALL):        1.31/       1.33 seconds.
--executable xvprop finished with status     0 in        1.37 seconds (walltime).
 --invoking executable--
/nfs/workspaces/public/cfour_mpi/bin/xvscf
  There are  218 functions in the AO basis.

  There are 4 irreducible representations.

       Irrep        # of functions
         1                 86
         2                 52
         3                 52
         4                 28


  Parameters for SCF calculation: 
        SCF reference function:  RHF  
  Maximum number of iterations:  150
     Full symmetry point group: CXv 
     Computational point group: C2v 
        Initial density matrix: MOREAD                 
     SCF convergence tolerance: 10**(-10)
  DIIS convergence acceleration:  ON
          Latest start for DIIS:   8
                     DIIS order:   6

  Memory information:    2523578 words required.
  Fock matrices are constructed from AO integral file.
 @GETMEM-I,  Allocated      19 MB of main memory.
  Initialization and symmetry analysis required      0.002 seconds.

  Adding electric field perturbation to one-electron Hamiltonian.
  Field direction     : Z
  Field strength      : -0.0002000 a.u.

  @INITGES-I, Occupancies from core Hamiltonian:

          Alpha population by irrep:   5    1    1    0
           Beta population by irrep:   5    1    1    0


 total no. of electrons in initial guess :  0.000000000000000E+000
  --------------------------------------------------------------------
  Iteration         Total Energy            Largest Density Difference
  --------------------------------------------------------------------
       0            15.442901042488323              0.0000000000D+00
   current occupation vector 
     5  1  1  0
     5  1  1  0
       1           -93.647346327053327              0.1755556276D+02
   current occupation vector 
     5  1  1  0
     5  1  1  0
       2           -97.895156452258959              0.1755555108D+02
   current occupation vector 
     5  1  1  0
     5  1  1  0
       3          -100.167755825867886              0.6816551432D+01
   current occupation vector 
     5  1  1  0
     5  1  1  0
       4           -94.937072086378407              0.6813375351D+01
   current occupation vector 
     5  1  1  0
     5  1  1  0
       5          -100.121443500024384              0.7010490176D+01
   current occupation vector 
     5  1  1  0
     5  1  1  0
       6           -94.782538498239461              0.7010768107D+01
   current occupation vector 
     5  1  1  0
     5  1  1  0
       7          -100.114986545734155              0.7020592270D+01
   current occupation vector 
     5  1  1  0
     5  1  1  0
       8           -94.778057085073016              0.7020607659D+01
   current occupation vector 
     5  1  1  0
     5  1  1  0
       9          -107.359635613659833              0.5944154090D+01
   current occupation vector 
     5  1  1  0
     5  1  1  0
      10          -110.612024071503043              0.1323196031D+01
   current occupation vector 
     5  1  1  0
     5  1  1  0
      11          -112.360152761148072              0.1028323279D+01
   current occupation vector 
     5  1  1  0
     5  1  1  0
      12          -112.478103520297225              0.5084685305D+00
   current occupation vector 
     5  1  1  0
     5  1  1  0
      13          -112.500181885307796              0.1279100340D+00
   current occupation vector 
     5  1  1  0
     5  1  1  0
      14          -112.506807843234895              0.9040357449D-01
   current occupation vector 
     5  1  1  0
     5  1  1  0
      15          -112.507335068408992              0.2801580770D-01
   current occupation vector 
     5  1  1  0
     5  1  1  0
      16          -112.507836155179604              0.4324828743D-01
   current occupation vector 
     5  1  1  0
     5  1  1  0
      17          -112.508047414706652              0.3204522129D-01
   current occupation vector 
     5  1  1  0
     5  1  1  0
      18          -112.508093286002037              0.1960860113D-01
   current occupation vector 
     5  1  1  0
     5  1  1  0
      19          -112.508093704147910              0.1661684237D-02
   current occupation vector 
     5  1  1  0
     5  1  1  0
      20          -112.508093708028838              0.1427294684D-03
   current occupation vector 
     5  1  1  0
     5  1  1  0
      21          -112.508093708211334              0.1768172615D-04
   current occupation vector 
     5  1  1  0
     5  1  1  0
      22          -112.508093708213011              0.3447659851D-05
   current occupation vector 
     5  1  1  0
     5  1  1  0
      23          -112.508093708213408              0.9512376851D-06
   current occupation vector 
     5  1  1  0
     5  1  1  0
      24          -112.508093708212783              0.1091825966D-06
   current occupation vector 
     5  1  1  0
     5  1  1  0
      25          -112.508093708212044              0.3386007386D-07
   current occupation vector 
     5  1  1  0
     5  1  1  0
      26          -112.508093708212471              0.3459672326D-08
   current occupation vector 
     5  1  1  0
     5  1  1  0
      27          -112.508093708211902              0.6596730273D-08
   current occupation vector 
     5  1  1  0
     5  1  1  0
      28          -112.508093708212243              0.6723705814D-08
   current occupation vector 
     5  1  1  0
     5  1  1  0
      29          -112.508093708211590              0.1051121634D-08
   current occupation vector 
     5  1  1  0
     5  1  1  0

  SCF has converged.

 Density matrix saved to file den.dat
 total electron number:   14.0000000000000     
     E(SCF)=      -112.508093708210879              0.7098131284D-10

  Eigenvector printing suppressed.

 @PUTMOS-I, Writing converged MOs to NEWMOS. 
 @PUTMOS-I, Symmetry   1 Full Blocks 21 Partial Blocksize   2
 @PUTMOS-I, Symmetry   2 Full Blocks 13 Partial Blocksize   0
 @PUTMOS-I, Symmetry   3 Full Blocks 13 Partial Blocksize   0
 @PUTMOS-I, Symmetry   4 Full Blocks  7 Partial Blocksize   0
 @PUTFOCK-I, Writing converged Fock matrix to NEWFOCK. 
 @PUTFOCK-I, Symmetry   1 Full Blocks 21 Partial Blocksize   2
 @PUTFOCK-I, Symmetry   2 Full Blocks 13 Partial Blocksize   0
 @PUTFOCK-I, Symmetry   3 Full Blocks 13 Partial Blocksize   0
 @PUTFOCK-I, Symmetry   4 Full Blocks  7 Partial Blocksize   0


 
  ORBITAL EIGENVALUES (ALPHA)  (1H = 27.2113834 eV)

       MO #        E(hartree)               E(eV)           FULLSYM    COMPSYM
       ----   --------------------   --------------------   -------   ---------
    1     1         -20.6404803070        -561.6560231937     SG+        A1 (1)
    2     2         -11.5297703398        -313.7410012308     SG+        A1 (1)
    3     3          -1.2620120584         -34.3410939755     SG+        A1 (1)
    4     4          -0.8085826495         -22.0026524857     SG+        A1 (1)
    5     5          -0.5204356416         -14.1617737791     SG+        A1 (1)
    6   139          -0.4901052490         -13.3364418375      PI        B2 (3)
    7    87          -0.4901052490         -13.3364418375      PI        B1 (2)
  +++++++++++++++++++++++++++++++++++++++++++++++++++++++++++++++++++++++++++++
    8   140          -0.0143475622          -0.3904170168      PI        B2 (3)
    9    88          -0.0143475622          -0.3904170168      PI        B1 (2)
   10     6           0.0576800153           1.5695530114     SG+        A1 (1)
   11     7           0.0692697171           1.8849248292     SG+        A1 (1)
   12   141           0.0807178375           2.1964440228      PI        B2 (3)
   13    89           0.0807178375           2.1964440228      PI        B1 (2)
   14     8           0.1570757342           4.2742480272     SG+        A1 (1)
   15   142           0.1815687442           4.9407367121      PI        B2 (3)
   16    90           0.1815687442           4.9407367121      PI        B1 (2)
   17     9           0.1860939025           5.0638725290     SG+        A1 (1)
   18    10           0.2207033586           6.0056437099      DE        A1 (1)
   19   191           0.2207033586           6.0056437099      DE        A2 (4)
   20   143           0.2824124091           7.6848323412      PI        B2 (3)
   21    91           0.2824124091           7.6848323412      PI        B1 (2)
   22    11           0.2985233873           8.1232343466     SG+        A1 (1)
   23    12           0.3047685745           8.2931745295     SG+        A1 (1)
   24   144           0.4064062843          11.0588772195      PI        B2 (3)
   25    92           0.4064062843          11.0588772195      PI        B1 (2)
   26    13           0.4139618679          11.2644751015     SG+        A1 (1)
   27    14           0.5144561898          13.9990646234     SG+        A1 (1)
   28    15           0.5505109965          14.9801657928      DE        A1 (1)
   29   192           0.5505109965          14.9801657928      DE        A2 (4)
   30    93           0.6234893420          16.9660075315      PI        B1 (2)
   31   145           0.6234893420          16.9660075315      PI        B2 (3)
   32    16           0.7015316599          19.0896469635     SG+        A1 (1)
   33   146           0.7288086000          19.8318902392      PH        B2 (3)
   34    94           0.7288086000          19.8318902392      PH        B1 (2)
   35    17           0.7352293152          20.0066067826      DE        A1 (1)
   36   193           0.7352293152          20.0066067826      DE        A2 (4)
   37    95           0.7725229987          21.0214195037      PI        B1 (2)
   38   147           0.7725229987          21.0214195037      PI        B2 (3)
   39    18           0.8143273258          22.1589730767     SG+        A1 (1)
   40    19           0.8546433802          23.2560286877      DE        A1 (1)
   41   194           0.8546433802          23.2560286877      DE        A2 (4)
   42    96           0.8767059658          23.8563821649      PI        B1 (2)
   43   148           0.8767059658          23.8563821649      PI        B2 (3)
   44    20           0.8930136006          24.3001354686     SG+        A1 (1)
   45    97           1.0455081444          28.4497229657      PI        B1 (2)
   46   149           1.0455081444          28.4497229657      PI        B2 (3)
   47    21           1.1385663625          30.9819658176     SG+        A1 (1)
   48    22           1.3478216424          36.6760914662     SG+        A1 (1)
   49   150           1.4198367390          38.6357218711      PH        B2 (3)
   50    98           1.4198367390          38.6357218711      PH        B1 (2)
   51    99           1.4730474332          40.0836584710      PI        B1 (2)
   52   151           1.4730474332          40.0836584710      PI        B2 (3)
   53    23           1.5832748178          43.0830980943     SG+        A1 (1)
   54    24           1.5874456937          43.1965933970      DE        A1 (1)
   55   195           1.5874456937          43.1965933970      DE        A2 (4)
   56   100           1.6398029868          44.6213077736      PI        B1 (2)
   57   152           1.6398029868          44.6213077736      PI        B2 (3)
   58    25           1.6687467036          45.4089063491      DE        A1 (1)
   59   196           1.6687467036          45.4089063491      DE        A2 (4)
   60    26           1.9195135835          52.2326200609     SG+        A1 (1)
   61    27           1.9247413229          52.3748740824     SG+        A1 (1)
   62   101           2.0531491967          55.8690299697      PI        B1 (2)
   63   153           2.0531491967          55.8690299697      PI        B2 (3)
   64   197           2.0628580687          56.1332218071      PI        A2 (4)
   65    28           2.0628580687          56.1332218071      PI        A1 (1)
   66    29           2.1201283110          57.6916243266      DE        A1 (1)
   67   198           2.1201283110          57.6916243266      DE        A2 (4)
   68   102           2.1885765682          59.5541960986      PH        B1 (2)
   69   154           2.1885765682          59.5541960986      PH        B2 (3)
   70   155           2.2033586925          59.9564381502      PH        B2 (3)
   71   103           2.2033586925          59.9564381502      PH        B1 (2)
   72   104           2.2130500747          60.2201540659      PI        B1 (2)
   73   156           2.2130500747          60.2201540659      PI        B2 (3)
   74    30           2.2162515114          60.3072695874     SG+        A1 (1)
   75    31           2.2761268751          61.9365610645      DE        A1 (1)
   76   199           2.2761268751          61.9365610645      DE        A2 (4)
   77    32           2.3765828292          64.6701065461     SG+        A1 (1)
   78   105           2.4925729953          67.8263594264      PI        B1 (2)
   79   157           2.4925729953          67.8263594264      PI        B2 (3)
   80   200           2.6030690911          70.8331110558      DE        A2 (4)
   81    33           2.6030690911          70.8331110558      DE        A1 (1)
   82   106           2.6081840134          70.9722951658      PI        B1 (2)
   83   158           2.6081840134          70.9722951658      PI        B2 (3)
   84    34           2.6525333063          72.1791007788     SG+        A1 (1)
   85    35           2.8559377515          77.7140171233     SG+        A1 (1)
   86   159           3.3348264789          90.7452418902      PI        B2 (3)
   87   107           3.3348264789          90.7452418902      PI        B1 (2)
   88    36           3.7137235729         101.0555559847      PI        A1 (1)
   89   201           3.7137235729         101.0555559847      PI        A2 (4)
   90    37           3.8670793041         105.2285775819     SG+        A1 (1)
   91   160           3.8909499720         105.8781314791      PH        B2 (3)
   92   108           3.8909499720         105.8781314791      PH        B1 (2)
   93    38           4.0846636027         111.1493473537     SG+        A1 (1)
   94   109           4.1440422464         112.7651223919      PH        B1 (2)
   95   161           4.1440422464         112.7651223919      PH        B2 (3)
   96   110           4.1513893436         112.9650470714      PI        B1 (2)
   97   162           4.1513893436         112.9650470714      PI        B2 (3)
   98    39           4.1620377098         113.2548038476      DE        A1 (1)
   99   202           4.1620377098         113.2548038476      DE        A2 (4)
  100    40           4.3024706111         117.0761773647      DE        A1 (1)
  101   203           4.3024706111         117.0761773647      DE        A2 (4)
  102    41           4.3619064950         118.6935099902     SG+        A1 (1)
  103   111           4.5004130062         122.4624637703      PI        B1 (2)
  104   163           4.5004130062         122.4624637703      PI        B2 (3)
  105   204           4.6263483021         125.8893373915      DE        A2 (4)
  106    42           4.6263483021         125.8893373915      DE        A1 (1)
  107    43           4.8368179054         131.6165064603     SG+        A1 (1)
  108   164           5.0968418061         138.6921165136      PI        B2 (3)
  109   112           5.0968418061         138.6921165136      PI        B1 (2)
  110    44           5.1325007924         139.6624468637     SG+        A1 (1)
  111   113           5.3523226108         145.6441026431      PI        B1 (2)
  112   165           5.3523226108         145.6441026431      PI        B2 (3)
  113   205           5.8180474207         158.3171190043      PI        A2 (4)
  114    45           5.8180474207         158.3171190043      PI        A1 (1)
  115   166           5.8886076849         160.2371614051      PH        B2 (3)
  116   114           5.8886076849         160.2371614051      PH        B1 (2)
  117    46           5.9988567772         163.2371917257     SG+        A1 (1)
  118   206           6.0680939514         165.1212310174      DE        A2 (4)
  119    47           6.0680939514         165.1212310174      DE        A1 (1)
  120   167           6.1118747734         166.3125677514      PI        B2 (3)
  121   115           6.1118747734         166.3125677514      PI        B1 (2)
  122    48           6.1628463452         167.6995747349     SG+        A1 (1)
  123    49           6.2733165998         170.7056231863      DE        A1 (1)
  124   207           6.2733165998         170.7056231863      DE        A2 (4)
  125   168           6.3430767959         172.6038946298      PH        B2 (3)
  126   116           6.3430767959         172.6038946299      PH        B1 (2)
  127   208           6.4754101370         176.2048679096      DE        A2 (4)
  128    50           6.4754101370         176.2048679097      DE        A1 (1)
  129   117           6.7401492125         183.4087843950      PI        B1 (2)
  130   169           6.7401492125         183.4087843950      PI        B2 (3)
  131    51           7.0720832506         192.4411687685     SG+        A1 (1)
  132   170           7.1235336276         193.8412047047      PI        B2 (3)
  133   118           7.1235336276         193.8412047047      PI        B1 (2)
  134    52           7.6286071773         207.5849547099     SG+        A1 (1)
  135    53           9.4489094179         257.1178968827     SG+        A1 (1)
  136   171           9.6629740832         262.9428925609      PI        B2 (3)
  137   119           9.6629740832         262.9428925612      PI        B1 (2)
  138    54          10.6656855595         290.2280589836      PI        A1 (1)
  139   209          10.6656855595         290.2280589836      PI        A2 (4)
  140    55          10.6752025732         290.4870300908     SG+        A1 (1)
  141   172          10.7307047731         291.9973217340      PH        B2 (3)
  142   120          10.7307047731         291.9973217341      PH        B1 (2)
  143   210          10.9450891706         297.8310177671      DE        A2 (4)
  144    56          10.9450891706         297.8310177671      DE        A1 (1)
  145   121          10.9829526428         298.8613352271      PI        B1 (2)
  146   173          10.9829526428         298.8613352271      PI        B2 (3)
  147    57          11.1432615344         303.2235619394     SG+        A1 (1)
  148   174          11.9016093009         323.8592537632      PH        B2 (3)
  149   122          11.9016093009         323.8592537632      PH        B1 (2)
  150    58          11.9809185761         326.0173688594      DE        A1 (1)
  151   211          11.9809185761         326.0173688594      DE        A2 (4)
  152   175          12.2703396174         333.8929157772      PI        B2 (3)
  153   123          12.2703396174         333.8929157772      PI        B1 (2)
  154    59          12.5293603207         340.9412274445     SG+        A1 (1)
  155    60          12.7243426699         346.2469669048      DE        A1 (1)
  156   212          12.7243426699         346.2469669048      DE        A2 (4)
  157   124          13.1068521090         356.6555779045      PI        B1 (2)
  158   176          13.1068521090         356.6555779046      PI        B2 (3)
  159    61          13.4045145680         364.7553852010     SG+        A1 (1)
  160    62          17.2764644386         470.1164976362     SG+        A1 (1)
  161   125          18.6886259194         508.5433651106      PI        B1 (2)
  162   177          18.6886259194         508.5433651108      PI        B2 (3)
  163    63          19.5163229938         531.0661475430     SG+        A1 (1)
  164   213          26.2432363507         714.1147659953      DE        A2 (4)
  165    64          26.2432363507         714.1147659953      DE        A1 (1)
  166   126          26.5008988937         721.1261202406      PI        B1 (2)
  167   178          26.5008988937         721.1261202406      PI        B2 (3)
  168    65          26.9452923879         733.2186819911     SG+        A1 (1)
  169   179          33.3788956555         908.2859271494      PI        B2 (3)
  170   127          33.3788956555         908.2859271505      PI        B1 (2)
  171    66          34.2638574371         932.3669614834     SG+        A1 (1)
  172    67          35.5256621954         966.7024145374     SG+        A1 (1)
  173    68          47.0759997310        1281.0030776175      DE        A1 (1)
  174   214          47.0759997310        1281.0030776175      DE        A2 (4)
  175   128          47.2638233984        1286.1140194438      PI        B1 (2)
  176   180          47.2638233984        1286.1140194438      PI        B2 (3)
  177    69          47.4393291189        1290.8897728919     SG+        A1 (1)
  178    70          63.7057603901        1733.5218707625     SG+        A1 (1)
  179   129          66.2787169695        1803.5355787178      PI        B1 (2)
  180   181          66.2787169695        1803.5355787180      PI        B2 (3)
  181    71          66.8934226635        1820.2625710339     SG+        A1 (1)
  182   182          98.4985620574        2680.2821364918      PH        B2 (3)
  183   130          98.4985620574        2680.2821364918      PH        B1 (2)
  184    72          98.5127380678        2680.6678853460      DE        A1 (1)
  185   215          98.5127380678        2680.6678853460      DE        A2 (4)
  186   131          98.5258740224        2681.0253328447      PI        B1 (2)
  187   183          98.5258740224        2681.0253328447      PI        B2 (3)
  188    73          98.5342275703        2681.2526444376     SG+        A1 (1)
  189   216         103.3150593567        2811.3456911484      DE        A2 (4)
  190    74         103.3150593567        2811.3456911501      DE        A1 (1)
  191   132         103.3196575237        2811.4708136336      PH        B1 (2)
  192   184         103.3196575237        2811.4708136336      PH        B2 (3)
  193   133         103.3336429305        2811.8513758996      PI        B1 (2)
  194   185         103.3336429305        2811.8513758996      PI        B2 (3)
  195    75         103.3439638879        2812.1322234300     SG+        A1 (1)
  196    76         114.9486799036        3127.9126001813      DE        A1 (1)
  197   217         114.9486799036        3127.9126001813      DE        A2 (4)
  198   186         115.0744118749        3131.3339410578      PI        B2 (3)
  199   134         115.0744118749        3131.3339410578      PI        B1 (2)
  200    77         115.2692257683        3136.6350966021     SG+        A1 (1)
  201   187         116.6912636563        3175.3307147817      PI        B2 (3)
  202   135         116.6912636563        3175.3307147826      PI        B1 (2)
  203    78         117.4177242462        3195.0987124180     SG+        A1 (1)
  204    79         121.8056429534        3314.5000506881     SG+        A1 (1)
  205    80         198.5593920274        5403.0757441279      DE        A1 (1)
  206   218         198.5593920274        5403.0757441279      DE        A2 (4)
  207   136         198.6617666231        5405.8614985021      PI        B1 (2)
  208   188         198.6617666231        5405.8614985021      PI        B2 (3)
  209    81         198.7525375230        5408.3315002616     SG+        A1 (1)
  210    82         216.2323778312        5883.9821366576     SG+        A1 (1)
  211   137         224.7642224364        6116.1454313193      PI        B1 (2)
  212   189         224.7642224364        6116.1454313194      PI        B2 (3)
  213    83         225.2501254640        6129.3675249000     SG+        A1 (1)
  214   190         395.2325244697       10754.8237554948      PI        B2 (3)
  215   138         395.2325244697       10754.8237554951      PI        B1 (2)
  216    84         395.7908181107       10770.0156978111     SG+        A1 (1)
  217    85         508.5523415614       13838.4127451958     SG+        A1 (1)
  218    86         895.0442264858       24355.3916068626     SG+        A1 (1)


  VSCF finished.

 @CHECKOUT-I, Total execution time (CPU/WALL):       51.30/       9.80 seconds.
--executable xvscf finished with status     0 in        9.87 seconds (walltime).
 --invoking executable--
/nfs/workspaces/public/cfour_mpi/bin/xvtran
 @GETMEM-I,  Allocated    3814 MB of main memory.
  Full RHF integral transformation
  Transformation of IIII integrals :
  1 pass through the AO integral file was required.
     4413699 AO integrals were read.
     8613990 MO integrals were written to HF2.
  Transformation of IIJJ integrals :
  1 pass through the AO integral file was required.
    10029408 AO integrals were read.
    14348329 MO integrals were written to HF2.
  Transformation of IJIJ integrals :
  1 pass through the AO integral file was required.
    19047684 AO integrals were read.
    26624757 MO integrals were written to HF2.
  Transformation of IJKL integrals :
  1 pass through the AO integral file was required.
    14072863 AO integrals were read.
    18056984 MO integrals were written to HF2.
  Summary of active molecular orbitals: 
------------------------------------------------------------------------
 
  Index      Eigenvalue    Symmetry    Index      Eigenvalue    Symmetry
------------------------------------------------------------------------
     1       -20.6404803        1       110         4.1440422        2
     2       -11.5297703        1       111         4.1513893        2
     3        -1.2620121        1       112         4.5004130        2
     4        -0.8085826        1       113         5.0968418        2
     5        -0.5204356        1       114         5.3523226        2
     6        -0.4901052        2       115         5.8886077        2
     7        -0.4901052        3       116         6.1118748        2
     8         0.0576800        1       117         6.3430768        2
     9         0.0692697        1       118         6.7401492        2
    10         0.1570757        1       119         7.1235336        2
    11         0.1860939        1       120         9.6629741        2
    12         0.2207034        1       121        10.7307048        2
    13         0.2985234        1       122        10.9829526        2
    14         0.3047686        1       123        11.9016093        2
    15         0.4139619        1       124        12.2703396        2
    16         0.5144562        1       125        13.1068521        2
    17         0.5505110        1       126        18.6886259        2
    18         0.7015317        1       127        26.5008989        2
    19         0.7352293        1       128        33.3788957        2
    20         0.8143273        1       129        47.2638234        2
    21         0.8546434        1       130        66.2787170        2
    22         0.8930136        1       131        98.4985621        2
    23         1.1385664        1       132        98.5258740        2
    24         1.3478216        1       133       103.3196575        2
    25         1.5832748        1       134       103.3336429        2
    26         1.5874457        1       135       115.0744119        2
    27         1.6687467        1       136       116.6912637        2
    28         1.9195136        1       137       198.6617666        2
    29         1.9247413        1       138       224.7642224        2
    30         2.0628581        1       139       395.2325245        2
    31         2.1201283        1       140        -0.0143476        3
    32         2.2162515        1       141         0.0807178        3
    33         2.2761269        1       142         0.1815687        3
    34         2.3765828        1       143         0.2824124        3
    35         2.6030691        1       144         0.4064063        3
    36         2.6525333        1       145         0.6234893        3
    37         2.8559378        1       146         0.7288086        3
    38         3.7137236        1       147         0.7725230        3
    39         3.8670793        1       148         0.8767060        3
    40         4.0846636        1       149         1.0455081        3
    41         4.1620377        1       150         1.4198367        3
    42         4.3024706        1       151         1.4730474        3
    43         4.3619065        1       152         1.6398030        3
    44         4.6263483        1       153         2.0531492        3
    45         4.8368179        1       154         2.1885766        3
    46         5.1325008        1       155         2.2033587        3
    47         5.8180474        1       156         2.2130501        3
    48         5.9988568        1       157         2.4925730        3
    49         6.0680940        1       158         2.6081840        3
    50         6.1628463        1       159         3.3348265        3
    51         6.2733166        1       160         3.8909500        3
    52         6.4754101        1       161         4.1440422        3
    53         7.0720833        1       162         4.1513893        3
    54         7.6286072        1       163         4.5004130        3
    55         9.4489094        1       164         5.0968418        3
    56        10.6656856        1       165         5.3523226        3
    57        10.6752026        1       166         5.8886077        3
    58        10.9450892        1       167         6.1118748        3
    59        11.1432615        1       168         6.3430768        3
    60        11.9809186        1       169         6.7401492        3
    61        12.5293603        1       170         7.1235336        3
    62        12.7243427        1       171         9.6629741        3
    63        13.4045146        1       172        10.7307048        3
    64        17.2764644        1       173        10.9829526        3
    65        19.5163230        1       174        11.9016093        3
    66        26.2432364        1       175        12.2703396        3
    67        26.9452924        1       176        13.1068521        3
    68        34.2638574        1       177        18.6886259        3
    69        35.5256622        1       178        26.5008989        3
    70        47.0759997        1       179        33.3788957        3
    71        47.4393291        1       180        47.2638234        3
    72        63.7057604        1       181        66.2787170        3
    73        66.8934227        1       182        98.4985621        3
    74        98.5127381        1       183        98.5258740        3
    75        98.5342276        1       184       103.3196575        3
    76       103.3150594        1       185       103.3336429        3
    77       103.3439639        1       186       115.0744119        3
    78       114.9486799        1       187       116.6912637        3
    79       115.2692258        1       188       198.6617666        3
    80       117.4177242        1       189       224.7642224        3
    81       121.8056430        1       190       395.2325245        3
    82       198.5593920        1       191         0.2207034        4
    83       198.7525375        1       192         0.5505110        4
    84       216.2323778        1       193         0.7352293        4
    85       225.2501255        1       194         0.8546434        4
    86       395.7908181        1       195         1.5874457        4
    87       508.5523416        1       196         1.6687467        4
    88       895.0442265        1       197         2.0628581        4
    89        -0.0143476        2       198         2.1201283        4
    90         0.0807178        2       199         2.2761269        4
    91         0.1815687        2       200         2.6030691        4
    92         0.2824124        2       201         3.7137236        4
    93         0.4064063        2       202         4.1620377        4
    94         0.6234893        2       203         4.3024706        4
    95         0.7288086        2       204         4.6263483        4
    96         0.7725230        2       205         5.8180474        4
    97         0.8767060        2       206         6.0680940        4
    98         1.0455081        2       207         6.2733166        4
    99         1.4198367        2       208         6.4754101        4
   100         1.4730474        2       209        10.6656856        4
   101         1.6398030        2       210        10.9450892        4
   102         2.0531492        2       211        11.9809186        4
   103         2.1885766        2       212        12.7243427        4
   104         2.2033587        2       213        26.2432364        4
   105         2.2130501        2       214        47.0759997        4
   106         2.4925730        2       215        98.5127381        4
   107         2.6081840        2       216       103.3150594        4
   108         3.3348265        2       217       114.9486799        4
   109         3.8909500        2       218       198.5593920        4
------------------------------------------------------------------------
  -20.6404803069926       -11.5297703398219       -1.26201205836327     
 -0.808582649485254      -0.520435641619004      -0.490105249022485     
 -0.490105249022524       5.768001531868928E-002  6.926971706860498E-002
  0.157075734236658       0.186093902489524       0.220703358648699     
  0.298523387334430       0.304768574518808       0.413961867939686     
  0.514456189808116       0.550510996542770       0.701531659852029     
  0.735229315191915       0.814327325847950       0.854643380154420     
  0.893013600647768        1.13856636254678        1.34782164239991     
   1.58327481778524        1.58744569366448        1.66874670359822     
   1.91951358345481        1.92474132286742        2.06285806869574     
   2.12012831095656        2.21625151139397        2.27612687506712     
   2.37658282915807        2.60306909114397        2.65253330629134     
   2.85593775152475        3.71372357293468        3.86707930409208     
   4.08466360272088        4.16203770983672        4.30247061105616     
   4.36190649499462        4.62634830213968        4.83681790541670     
   5.13250079243324        5.81804742070816        5.99885677718531     
   6.06809395135109        6.16284634521237        6.27331659978309     
   6.47541013698150        7.07208325059095        7.62860717731399     
[...]
 Convergence information after    16 iterations: 
 Largest element of residual vector :  0.10569458E-05.
 Largest element of DIIS residual   :  0.34558490E-06.
 Convergence information after    17 iterations: 
 Largest element of residual vector :  0.49353924E-06.
 Largest element of DIIS residual   :  0.20827800E-06.
 Convergence information after    18 iterations: 
 Largest element of residual vector :  0.86236855E-07.
 Largest element of DIIS residual   : -0.41384312E-07.
 Perturbed amplitude equations converged in    18 iterations.
  Dominant contributions to perturbed wavefunction:
    7    7  140   45  -0.2297163486 ABAB
    7    7   45  140  -0.2297163486 ABAB
    7    7  140   22  -0.2208132218 ABAB
    7    7   22  140  -0.2208132218 ABAB
    7    7  140   28   0.2142528335 ABAB
    7    7   28  140   0.2142528335 ABAB
    7    0   36    0   0.1977820732 AA  
    7    7  140   39  -0.1845162079 ABAB
    7    7   39  140  -0.1845162079 ABAB
    7    0   45    0   0.1696505327 AA  
    7    7  140   32  -0.1688158988 ABAB
    7    7   32  140  -0.1688158988 ABAB
    7    0   22    0   0.1682246608 AA  
    7    0   39    0   0.1577790991 AA  
    7    7  140   57  -0.1567825654 ABAB
    7    7   57  140  -0.1567825654 ABAB
    7    0   28    0  -0.1527681594 AA  
    7    7  140   36  -0.1444065456 ABAB
    7    7   36  140  -0.1444065456 ABAB
    7    6   45   89  -0.1431963332 ABAB
  norm of converged amps    1.61668087430124     
 Starting iterative solution of the perturbed Lambda equations.
 The DIIS procedure is used to accelerate convergence.
 Convergence criterion is 10**(-7).
 Maximum number of iterations is 100.
 Convergence information after     1 iterations: 
 Largest element of residual vector :  0.80090651E-01.
 Largest element of DIIS residual   :  0.80090651E-01.
 Convergence information after     2 iterations: 
 Largest element of residual vector :  0.17550910E-01.
 Largest element of DIIS residual   :  0.13599835E-01.
 Convergence information after     3 iterations: 
 Largest element of residual vector :  0.69464869E-02.
 Largest element of DIIS residual   :  0.62119883E-02.
 Convergence information after     4 iterations: 
 Largest element of residual vector :  0.35714314E-02.
 Largest element of DIIS residual   :  0.32960079E-02.
 Convergence information after     5 iterations: 
 Largest element of residual vector :  0.32761947E-02.
 Largest element of DIIS residual   :  0.27542213E-02.
 Convergence information after     6 iterations: 
 Largest element of residual vector :  0.18201301E-02.
 Largest element of DIIS residual   :  0.81766963E-03.
 Convergence information after     7 iterations: 
 Largest element of residual vector :  0.87456682E-03.
 Largest element of DIIS residual   :  0.43699641E-03.
 Convergence information after     8 iterations: 
 Largest element of residual vector :  0.32586231E-03.
 Largest element of DIIS residual   : -0.20044499E-03.
 Convergence information after     9 iterations: 
 Largest element of residual vector :  0.14335898E-03.
 Largest element of DIIS residual   : -0.88728622E-04.
 Convergence information after    10 iterations: 
 Largest element of residual vector : -0.78474222E-04.
 Largest element of DIIS residual   : -0.42345137E-04.
 Convergence information after    11 iterations: 
 Largest element of residual vector : -0.21653078E-04.
 Largest element of DIIS residual   : -0.76701226E-05.
 Convergence information after    12 iterations: 
 Largest element of residual vector :  0.91366959E-05.
 Largest element of DIIS residual   :  0.53732024E-05.
 Convergence information after    13 iterations: 
 Largest element of residual vector :  0.23351322E-05.
 Largest element of DIIS residual   :  0.20109412E-05.
 Convergence information after    14 iterations: 
 Largest element of residual vector :  0.25633365E-05.
 Largest element of DIIS residual   :  0.15167755E-05.
 Convergence information after    15 iterations: 
 Largest element of residual vector :  0.13980705E-05.
 Largest element of DIIS residual   :  0.69521531E-06.
 Convergence information after    16 iterations: 
 Largest element of residual vector :  0.64362215E-06.
 Largest element of DIIS residual   :  0.20254399E-06.
 Convergence information after    17 iterations: 
 Largest element of residual vector :  0.30015979E-06.
 Largest element of DIIS residual   :  0.13123739E-06.
 Convergence information after    18 iterations: 
 Largest element of residual vector :  0.60085866E-07.
 Largest element of DIIS residual   : -0.30451849E-07.
 Perturbed Lambda equations converged in    18 iterations.
  Dominant contributions to perturbed wavefunction:
    7    7  140   45  -0.1817543972 ABAB
    7    7   45  140  -0.1817543972 ABAB
    7    7  140   22  -0.1735617500 ABAB
    7    7   22  140  -0.1735617500 ABAB
    7    7  140   28   0.1695215637 ABAB
    7    7   28  140   0.1695215637 ABAB
    7    7  140   39  -0.1438887498 ABAB
    7    7   39  140  -0.1438887498 ABAB
    7    7  140   32  -0.1334585384 ABAB
    7    7   32  140  -0.1334585384 ABAB
    7    7  140   57  -0.1227560670 ABAB
    7    7   57  140  -0.1227560670 ABAB
    7    6   45   89  -0.1126289749 ABAB
    6    7   89   45  -0.1126289749 ABAB
    7    6   22   89  -0.1067829771 ABAB
    6    7   89   22  -0.1067829771 ABAB
    7    7  140   16   0.1064595178 ABAB
    7    7   16  140   0.1064595178 ABAB
    7    7  140   36  -0.1061720856 ABAB
    7    7   36  140  -0.1061720856 ABAB
        The DBOC first-order density matrix is being calculated 
             (Symmetry block 3, perturbation   2)
 term   2.71398569806285     
 final tnorm  0.766765933638800     
  norm contr. I: |<0|L dT/dx|0>|^2   0.000000000000000E+000
  norm contr. II: <0|[nabla(1+L)e-T][nabla e^T]|0>   2.71398569806285     
  total norm contribution   2.71398569806285     
 oo  9.172537665001665E-003
 vv  -18.0380527084821     
 vo  4.449233358475849E-002
  Correlated perturbed 1-el contribution to DBOC  -17.9843878372324       cm**-1
  SUM_I |dc_I/dx|^2 contribution to DBOC   9.07936439266873       cm**-1
 
 
  The total diagonal Born-Oppenheimer correction (DBOC) is:      0.0038700157 a.u.
  The total diagonal Born-Oppenheimer correction (DBOC) is:        849.370277 cm-1
 
 Total CC energy including DBOC  -113.056170662220     
 First-order density matrix is being calculated  (Symmetry block 3, perturbation   2)
 Calculation of the contributions of <pq||rs> to dI(i,j)/dx required   3.2 seconds.
 Calculation of the contributions of <pq||rs> to dI(a,b)/dx required  16.4 seconds.
 Calculation of the contributions of <pq||rs> to dI(i,a)/dx required   9.9 seconds.
 First-order Z-vector equations are solved for 1 perturbation.
 Convergence reached after  19 iterations.
        U*G(pq,rs) contribution is being calculated
             (Symmetry block 3, perturbation   2)

 CCSD contribution to force constants 

        0.0000000000        0.0000000000        0.0000000000
        0.0000000000        0.0000000000        0.0000000000
        0.0000000000        0.0000000000        0.0000000000
        0.0000000000        0.0000000000        0.0000000000
        0.0000000000        0.0000000000        0.0000000000
        0.0000000000        0.0000000000        0.0000000000
        0.0000000000        0.0000000000        0.0000000000
        0.0000000000        0.0000000000        0.0000000000
        0.0000000000        0.0000000000        0.0000000000
        0.0000000000        0.0000000000        0.0000000000
        0.0000000000        0.0000000000        0.0000000000
        0.0000000000       -6.1311017095        6.1311017095

 CCSD contribution to dipole derivatives 

        0.0000000000        0.0000000000        0.0000000000
        0.0000000000        0.0000000000        0.0000000000
        0.0000000000        0.0000000000        0.0000000000
        0.0000000000        0.0000000000       -0.0573283924
        0.0000000000        0.0000000000        0.0000000000
        0.0000000000        0.0000000000        0.0000000000
 @CHECKOUT-I, Total execution time (CPU/WALL):     1314.83/     498.14 seconds.
--executable xsdcc finished with status     0 in      498.37 seconds (walltime).
 --invoking executable--
/nfs/workspaces/public/cfour_mpi/bin/xanti
 @GETMEM-I,  Allocated    3814 MB of main memory.
 CCSD MO derivative gammas will be sorted to Mulliken order.
 @CHECKOUT-I, Total execution time (CPU/WALL):       12.64/      32.44 seconds.
--executable xanti finished with status     0 in       32.57 seconds (walltime).
 --invoking executable--
/nfs/workspaces/public/cfour_mpi/bin/xbcktrn
 @GETMEM-I,  Allocated    3814 MB of main memory.
 CCSD MO derivative gammas will be transformed to the AO basis.
 @CHECKOUT-I, Total execution time (CPU/WALL):       23.30/       5.22 seconds.
--executable xbcktrn finished with status     0 in        5.28 seconds (walltime).
 --invoking executable--
/nfs/workspaces/public/cfour_mpi/bin/xvdint
 @GETMEM-I,  Allocated    3814 MB of main memory.
 One- and two-electron integral derivatives are calculated
 for RHF-CC/MBPT hessians and dipole derivatives.
 Spherical gaussians are used.
  magnet F F
                    8722  records have been written to the Sort file.
  Total length of Sort file :             178609116  words.
 Evaluation of 2el integral derivatives

                      Two-electron integral gradient
                      ------------------------------

                         C #1 z     0.0000000000
                         O #2 z     0.0000000000


 C #1       0.0000000000            0.0801314328            0.0000000000
 O #2       0.0000000000           -0.0801314328            0.0000000000


 Evaluation of 2e integral derivatives required  351.54 seconds.
  contribution to Hessian
        0.0000000000        0.0000000000        0.0000000000
        0.0000000000        0.0801314328       -0.0801314328
 @CHECKOUT-I, Total execution time (CPU/WALL):      351.51/      70.52 seconds.
--executable xvdint finished with status     0 in       70.68 seconds (walltime).
 --invoking executable--
/nfs/workspaces/public/cfour_mpi/bin/xanti
 @GETMEM-I,  Allocated    3814 MB of main memory.
 CCSD MO gammas will be sorted to Mulliken order.
 @CHECKOUT-I, Total execution time (CPU/WALL):       15.14/      57.09 seconds.
--executable xanti finished with status     0 in       57.22 seconds (walltime).
 --invoking executable--
/nfs/workspaces/public/cfour_mpi/bin/xbcktrn
 @GETMEM-I,  Allocated    3814 MB of main memory.
 CCSD MO gammas will be transformed to the AO basis.
 @CHECKOUT-I, Total execution time (CPU/WALL):       48.08/       8.58 seconds.
--executable xbcktrn finished with status     0 in        8.64 seconds (walltime).
 --invoking executable--
/nfs/workspaces/public/cfour_mpi/bin/xvdint
 @GETMEM-I,  Allocated    3814 MB of main memory.
 One- and two-electron integral derivatives are calculated
 for RHF-CC/MBPT hessians and dipole derivatives.
 Spherical gaussians are used.
  magnet F F

                     Kinetic energy integral gradient
                     --------------------------------

                         C #1 z    -0.4802622883
                         O #2 z     0.4802622883


 C #1       0.0000000000            0.0000000000           -0.4802622883
 O #2       0.0000000000            0.0000000000            0.4802622883



                   Nuclear attraction integral gradient
                   ------------------------------------

                         C #1 z    13.0151447708
                         O #2 z   -13.0151447708


 C #1       0.0000000000            0.0000000000           13.0151447708
 O #2       0.0000000000            0.0000000000          -13.0151447708



                      Reorthonormalization gradient
                      -----------------------------

                         C #1 z     0.0000000000
                         O #2 z     0.0000000000


 C #1       0.0000000000            0.0000000000            0.0000000000
 O #2       0.0000000000            0.0000000000            0.0000000000



                     Kinetic energy integral Hessian
                     -------------------------------


           Symmetry 1

           C #1 z      O #2 z

 C #1 z    0.506901
 O #2 z   -0.506901    0.506901


           Symmetry 2

           C #1 x      O #2 x

 C #1 x   -0.349488
 O #2 x    0.349488   -0.349488


           Symmetry 3

           C #1 y      O #2 y

 C #1 y   -0.349488
 O #2 y    0.349488   -0.349488




           C #1 x      C #1 y      C #1 z      O #2 x      O #2 y      O #2 z

 C #1 x   -0.349488
 C #1 y    0.000000   -0.349488
 C #1 z    0.000000    0.000000    0.506901

 O #2 x    0.349488    0.000000    0.000000   -0.349488
 O #2 y    0.000000    0.349488    0.000000    0.000000   -0.349488
 O #2 z    0.000000    0.000000   -0.506901    0.000000    0.000000    0.506901




                   Nuclear attraction integral Hessian
                   -----------------------------------


           Symmetry 1

           C #1 z      O #2 z

 C #1 z   -7.837825
 O #2 z    7.837825   -7.837825


           Symmetry 2

           C #1 x      O #2 x

 C #1 x    6.660174
 O #2 x   -6.660174    6.660174


           Symmetry 3

           C #1 y      O #2 y

 C #1 y    6.660174
 O #2 y   -6.660174    6.660174




           C #1 x      C #1 y      C #1 z      O #2 x      O #2 y      O #2 z

 C #1 x    6.660174
 C #1 y    0.000000    6.660174
 C #1 z    0.000000    0.000000   -7.837825

 O #2 x   -6.660174    0.000000    0.000000    6.660174
 O #2 y    0.000000   -6.660174    0.000000    0.000000    6.660174
 O #2 z    0.000000    0.000000    7.837825    0.000000    0.000000   -7.837825




                Highest order reorthonormalization Hessian
                ------------------------------------------


           Symmetry 1

           C #1 z      O #2 z

 C #1 z    0.000000
 O #2 z    0.000000    0.000000


           Symmetry 2

           C #1 x      O #2 x

 C #1 x    0.000000
 O #2 x    0.000000    0.000000


           Symmetry 3

           C #1 y      O #2 y

 C #1 y    0.000000
 O #2 y    0.000000    0.000000




           C #1 x      C #1 y      C #1 z      O #2 x      O #2 y      O #2 z




                Electronic contributions to dipole moment
                -----------------------------------------

                               au             Debye

                    z     -0.72867422     -1.85210545

  Conversion factor used: 1 a.u. =   2.54174691 Debye 



   Electronic contributions to static part of dipole moment derivatives
   --------------------------------------------------------------------


                     Total dipole moment derivatives
                     -------------------------------


           Symmetry 1
                              Ez

               C #1 z    -5.62865535
               O #2 z    -8.37134465

           Symmetry 2
                              Ex

               C #1 x    -5.67947419
               O #2 x    -8.32052581

           Symmetry 3
                              Ey

               C #1 y    -5.67947419
               O #2 y    -8.32052581



                       Ex          Ey          Ez

      C #1    x   -5.679474    0.000000    0.000000
      C #1    y    0.000000   -5.679474    0.000000
      C #1    z    0.000000    0.000000   -5.628655

      O #2    x   -8.320526    0.000000    0.000000
      O #2    y    0.000000   -8.320526    0.000000
      O #2    z    0.000000    0.000000   -8.371345

 Evaluation of 1e integral derivatives required    1.71 seconds.
                    8815  records have been written to the Sort file.
  Total length of Sort file :             180513570  words.
 Evaluation of 2el integral derivatives

                      Two-electron integral gradient
                      ------------------------------

                         C #1 z    -7.0064262565
                         O #2 z     7.0064262565


 C #1       0.0000000000            0.0000000000           -7.0064262565
 O #2       0.0000000000            0.0000000000            7.0064262565


 Evaluation of 2e integral derivatives required  723.68 seconds.

                            Molecular gradient
                            ------------------

                         C #1 z     0.5602163186
                         O #2 z    -0.5602163186


 C #1       0.0000000000            0.0000000000            0.5602163186
 O #2       0.0000000000            0.0000000000           -0.5602163186


  Molecular gradient norm 0.792E+00

                            Molecular hessian
                            -----------------


           Symmetry 1

           C #1 z      O #2 z

 C #1 z   12.882681
 O #2 z  -12.882681   12.882681


           Symmetry 2

           C #1 x      O #2 x

 C #1 x    6.293914
 O #2 x   -6.293914    6.293914


           Symmetry 3

           C #1 y      O #2 y

 C #1 y    6.293914
 O #2 y   -6.293914    6.293914




           C #1 x      C #1 y      C #1 z      O #2 x      O #2 y      O #2 z

 C #1 x    6.293914
 C #1 y    0.000000    6.293914
 C #1 z    0.000000    0.000000   12.882681

 O #2 x   -6.293914    0.000000    0.000000    6.293914
 O #2 y    0.000000   -6.293914    0.000000    0.000000    6.293914
 O #2 z    0.000000    0.000000  -12.882681    0.000000    0.000000   12.882681




                           Total dipole moment
                           -------------------

                               au             Debye

                    z      0.51414829      1.30683482

  Conversion factor used: 1 a.u. =   2.54174691 Debye 



                     Total dipole moment derivatives
                     -------------------------------


           Symmetry 1
                              Ez

               C #1 z     0.55031795
               O #2 z    -0.55031795

           Symmetry 2
                              Ex

               C #1 x     0.17597594
               O #2 x    -0.17597594

           Symmetry 3
                              Ey

               C #1 y     0.17597594
               O #2 y    -0.17597594



                       Ex          Ey          Ez

      C #1    x    0.175976    0.000000    0.000000
      C #1    y    0.000000    0.175976    0.000000
      C #1    z    0.000000    0.000000    0.550318

      O #2    x   -0.175976    0.000000    0.000000
      O #2    y    0.000000   -0.175976    0.000000
      O #2    z    0.000000    0.000000   -0.550318

 @CHECKOUT-I, Total execution time (CPU/WALL):      725.39/     122.79 seconds.
--executable xvdint finished with status     0 in      122.97 seconds (walltime).
 --invoking executable--
/nfs/workspaces/public/cfour_mpi/bin/xjoda
  @GTFLGS-I, Hessian will be transformed to curvilinear coordinates.
  @GTFLGS-I, Hessian will be transformed to curvilinear coordinates.
  igrd and ihes are                      0                     1
  gradient from JOBARC 
   0.000000000000000   0.000000000000000   0.560216318575738
   0.000000000000000   0.000000000000000  -0.560216318575738
 
  @PROJFCM-I, Projecting force constant matrix onto totally symmetric subspace.
  Largest difference between matrix elements of symmetrized
  and unsymmetrized FCM :     0.1118216630E-11.
  read isotopes from ZMAT file 
 
  Summary of diagonal Born-Oppenheimer correction at the correlated level
  The total diagonal Born-Oppenheimer correction (DBOC) is:      0.0038700157 a.u.
  The total diagonal Born-Oppenheimer correction (DBOC) is:        849.370277 cm-1
  The total diagonal Born-Oppenheimer correction (DBOC) is:            10.161 kJ/mole
  hellooooooo 
  readis is  F
 
 @CHECKOUT-I, Total execution time (CPU/WALL):        0.01/       0.07 seconds.
--executable xjoda finished with status     0 in        0.16 seconds (walltime).
  The final electronic energy is      -113.056170662220453 a.u. 
  This computation required                         4105.76 seconds (walltime).
