 --invoking executable--
/nfs/workspaces/public/cfour_mpi/bin/xjoda


   *************************************************************************
         <<<     CCCCCC     CCCCCC   |||     CCCCCC     CCCCCC   >>>
       <<<      CCC        CCC       |||    CCC        CCC         >>>
      <<<      CCC        CCC        |||   CCC        CCC            >>>
    <<<        CCC        CCC        |||   CCC        CCC              >>>
      <<<      CCC        CCC        |||   CCC        CCC            >>>
       <<<      CCC        CCC       |||    CCC        CCC         >>>
         <<<     CCCCCC     CCCCCC   |||     CCCCCC     CCCCCC   >>>
   *************************************************************************

     ****************************************************************
     * CFOUR Coupled-Cluster techniques for Computational Chemistry *
     ****************************************************************
 

   Department of Chemistry                Institut fuer Physikalische Chemie
   University of Florida                  Universitaet Mainz
   Gainesville, FL 32611, USA             D-55099 Mainz, Germany

   Department of Chemistry                Fakultaet fuer Chemie und Biowiss.
   Johns Hopkins University               Karlsruher Institut fuer Technologie
   Baltimore, MD 21218, USA               D-76131 Karlsruhe, Germany

   Department of Chemistry                Department of Physical Chemistry
   Southern Methodist University          Eotvos Lorand University
   Dallas, TX 75275, USA                  H-1053 Budapest, Hungary

 
                       Version 2.1
 
                     vincent.theory.phys.ucl.ac.uk                     
                     Sun  2 Mar 17:32:01 GMT 2025                      
                     integer*8 version is running
 
********************************************************************************
*                          Input from ZMAT file                                *
********************************************************************************
Carbon Monoxide DBOC calculation                                                
C                                                                               
O 1 r                                                                           
                                                                                
r=1.396551724137931                                                             
                                                                                
                                                                                
*CFOUR(CALC=CCSD,BASIS=AUG-PCVQZ,SCF_CONV=10                                    
CC_CONV=14,DBOC=ON,MEMORY=500000000                                             
ZFIELD=200)                                                                     
                                                                                
%isotopes                                                                       
12                                                                              
18                                                                              
********************************************************************************
  @GTFLGS-I, Hessian will be transformed to curvilinear coordinates.
    -------------------------------------------------------------------
                    CFOUR Control Parameters 
    -------------------------------------------------------------------
        External           Internal           Value            Units
          Name               Name
    -------------------------------------------------------------------
       ABCDTYPE             IABCDT         STANDARD    [  0]    ***   
       ANHARMONIC           IANHAR         OFF         [  0]    ***   
       ANH_ALGORIT          IANALG         STANDARD    [  0]    ***   
       ANH_DERIVAT          IANDER         SECOND      [  1]    ***   
       ANH_MODE             ANHMOD         VIBRATION   [  0]    ***   
       ANH_STEPSIZ          ICUBST             50000          x 10-6  
       ANH_SYMMETR          IANHSM         ABELIAN     [  0]    ***   
       AO_LADDERS           IAOLAD         SINGLEPASS  [  1]    ***   
       AV_SCF               IAVSCF         OFF         [  0]    ***   
       BASIS                IBASIS         AUG-PCVQZ   [ 52]    ***   
       BOTHVECTORS          BOTHVC         OFF         [  0]    ***   
       BOX_POTENT           IPIAB          OFF         [  0]    ***   
       BREIT                IBREIT         OFF         [  0]    ***   
       BRUCK_CONV           IBRTOL          10D-  4             ***   
       BRUECKNER            IBRKNR         OFF         [  0]    ***   
       BUFFERSIZE           IBUFFS              4096            ***   
       CACHE_RECS           ICHREC             10               ***   
       CALCLEVEL            ICLLVL         CCSD        [ 10]    ***   
       CCORBOPT             ICCORB         OFF         [  0]  x 0.01  
       CC_CONV              ICCCNV          10D- 14             ***   
       CC_EXPORDER          ICCEOR              5               ***   
       CC_EXTRAPOL          ICCEXT         DIIS        [  1]    ***   
       CC_GUESS             ICCGES         MP2         [  0]    ***   
       CC_MAXCYC            ICCCYC            100              cycles 
       CC_PROGRAM           ICCPRO         VCC         [  0]    ***   
       CHARGE               ICHRGE              0               ***   
       CHOLESKY             ICHOLE         OFF         [  0]    ***   
       CIS_CONV             ICISTL              5               ***   
       COMM_SIZE            IPSIZE            ***               ***   
       CONSTANT             ICONST         OLD         [  1]    ***   
       CONTINUUM            ICONTU         NONE        [  0]    ***   
       CONTRACTION          ICNTYP         GENERAL     [  1]    ***   
       COORDINATES          ICOORD         INTERNAL    [  0]    ***   
       CPHF_CONVER          ICPHFT          10D- 16             ***   
       CPHF_MAXCYC          ICPHFC             64              cycles 
       CUBIC                ICUBIC         OFF         [  0]    ***   
       CURVILINEAR          ICURVY         ON          [  1]    ***   
       DBOC                 IDBOC          ON          [  1]    ***   
       DCT                  IDCT           OFF         [  0]    ***   
       DERIV_LEV            IDRLVL         SECOND      [  2]    ***   
       DEVMEM_SIZE          IDVMEM          50000000           MByte  
       DIAG_MRCC            IEOMST          10D-  0             ***   
       DIFF_TYPE            IDIFTY         RELAXED     [  0]    ***   
       DIRECT               IDIRCT         OFF         [  0]    ***   
       DROPMO               IDRPMO      NONE         
       ECP                  IECP           OFF         [  0]    ***   
       EIGENVECTOR          IVEC                1               ***   
       EL_ANHARM            IELANH         OFF         [  0]    ***   
       EOMFOLLOW            IEOMSR         ENERGY      [  0]    ***   
       EOMIP                IEOMIP         OFF         [  0]    ***   
       EOMLEVEL             HBARFM         SAME        [  0]    ***   
       EOM_MRCC             IMRCCE         NEW         [  1]    ***   
       EOM_NONIT            EOMNON         OFF         [  0]    ***   
       EOM_NSING            IEOMSI          10D-  0             ***   
       EOM_NSTATES          IMRCCD         DAVIDSON    [  0]    ***   
       EOM_NTRIP            IEOMTR          10D-  0             ***   
       EOM_ORDER            IEXORD         ENERGY      [  0]    ***   
       EOM_PROPSTA          IEOMST              0               ***   
       ESTATE_CONV          IEXTOL          10D-  5             ***   
       ESTATE_DIAG          IEXDIG         ITERATIVE   [  0]    ***   
       ESTATE_LOCK          IESLOC         ON          [  1]    ***   
       ESTATE_MAXC          IEXMXC             40               ***   
       ESTATE_PROP          IEXPRP         OFF         [  0]    ***   
       EVAL_HESS            IRECAL              0            # of cyc.
       EXCITATION           IEXCIT              0               ***   
       EXCITE               IEXCIT         NONE        [  0]    ***   
       EXTERN_POT           IEXPOT         OFF         [  0]    ***   
       FCGRADNEW            IFCGNW         OFF         [  0]    ***   
       FC_FIELD             IFINFC              0             x 10-6  
       FD_CALTYPE           IFDCAL         GRADONLY    [  0]    ***   
       FD_PROJECT           IFDPRJ         OFF         [  1]    ***   
       FD_STEPSIZE          IDISFD              0            10-4 bohr
       FD_USEGROUP          IFDGRP         FULL        [  0]    ***   
       FILE_RECSIZ          IFLREC              4096           words  
       FINITE_PERT          IFIPER              0             x 10-6  
       FIXGEOM              IFIXGM         OFF         [  0]    ***   
       FOCK                 IFOCK          AO          [  1]    ***   
       FREQ_ALGORI          IVIALG         STANDARD    [  0]    ***   
       FROZEN_CORE          IFROCO         OFF         [  0]    ***   
       GAMMA_ABCD           IGABCD         STORE       [  0]    ***   
       GAMMA_ABCI           IGABCI         STORE       [  0]    ***   
       GENBAS_1             IGNBS1              0               ***   
       GENBAS_2             IGNBS2              0               ***   
       GENBAS_3             IGNBS3              0               ***   
       GENBAS_4             IGNBS4              0               ***   
       GEO_CONV             ICONTL              5              H/bohr 
       GEO_MAXCYC           IOPTCY             50               ***   
       GEO_MAXSTEP          IMXSTP            300            millibohr
       GEO_METHOD           INR            SINGLE_POINT[  5]    ***   
       GIAO                 IGIAO          OFF         [  1]    ***   
       GIMIC                IGIMIC         OFF         [  0]    ***   
       GRID                 IGRID          OFF         [  0]    ***   
       GRID_ALGO            IGALGO         SERIAL      [  0]    ***   
       GUESS                IGUESS         MOREAD      [  0]    ***   
       HBAR                 IHBAR          OFF         [  0]    ***   
       HESS_TYPE            IHESTP         SCF         [  0]    ***   
       HF2_FILE             IHF2Fl         USE         [  1]    ***   
       HFSTABILITY          ISTABL         OFF         [  0]    ***   
       INCORE               INCORE         OFF         [  0]    ***   
       INPUT_MRCC           IMRCC          ON          [  1]    ***   
       INTEGRALS            INTTYP         VMOL        [  1]    ***   
       JODA_PRINT           IJPRNT              0               ***   
       KEYWORD_OUT          IDMPKW         NO          [  0]    ***   
       LINDEP_TOL           ILINDP              8               ***   
       LINEQ_CONV           IZTACN          10D-  7           cycles  
       LINEQ_EXPOR          ILMAXD              5               ***   
       LINEQ_MAXCY          ILMAXC            100               ***   
       LINEQ_TYPE           ILTYPE         DIIS        [  1]    ***   
       LOCK_ORBOCC          ILOCOC         OFF         [  0]    ***   
       MEMORY_SIZE          IMEMSZ         500000000           words  
       MEM_UNIT             IMEMU          INTEGERWORDS[  0]    ***   
       MRCC                 IMRCCC         OFF         [  0]    ***   
       MULTIPLICTY          IMULTP              1               ***   
       NACOUPLING           IVCOUP         OFF         [  0]    ***   
       NEGEVAL              IDIE           ABORT       [  0]    ***   
       NEWNORM              INEWNO         OFF         [  0]    ***   
       NON-HF               INONHF         OFF         [  0]    ***   
       NTOP_TAMP            ITOPT2             15               ***   
       NUC_MODEL            INUCMO         POINT       [  0]    ***   
       OCCUPATION           IOCCU   ESTIMATED BY SCF 
       OPEN-SHELL           IOPEN          SPIN-ORBITAL[  0]    ***   
       OPTVIB               IOPTVB         OFF         [  0]    ***   
       ORBITALS             IORBTP         STANDARD    [  0]    ***   
       PARALLEL             IPARAL         ON          [  1]    ***   
       PARA_INT             IPINTS         ON          [  1]    ***   
       PARA_PRINT           IPPRIN              0               ***   
       PERT_ORB             IPTORB         STANDARD    [  0]    ***   
       POINTS               IGRDFD              0               ***   
       PRINT                IPRNT               0               ***   
       PROPS                IPROPS         OFF         [  0]    ***   
       PROP_INTEGR          IINTYP         INTERNAL    [  0]    ***   
       PSI                  IPSI           OFF         [  0]    ***   
       QC_ALG               IQCALG         FLM         [  0]    ***   
       QC_LINALG            IQCLIN         TRIDIAG     [  2]    ***   
       QC_MAXCYC            IQCMAX          10D-100           cycles  
       QC_MAXSCFCY          IQCMSC          10D- 15           cycles  
       QC_RTRUST            IQCRTR          10D-  0           x 10-3  
       QC_SKIPSCF           IQCSKI         OFF         [  0]    ***   
       QC_START             IQCSTA          10D-  1             ***   
       QRHFGUESS            IQGUES         OFF         [  0]    ***   
       QUARTIC              IQUART         OFF         [  0]    ***   
       RAMAN_INT            IRAMIN         OFF         [  0]    ***   
       RAMAN_ORB            IRAMRE         UNRELAXED   [  0]    ***   
       RDO                  IRDOFM         ON          [  1]    ***   
       REDUCE_REPR          REDREP         Ir          [  0]    ***   
       REFERENCE            IREFNC         RHF         [  0]    ***   
       RELATIVIST           IRELAT         OFF         [  0]    ***   
       RELAX_DENS           IRDENS         ON          [  1]    ***   
       RESET_FLAGS          IRESET         OFF         [  0]    ***   
       RESTART_CC           ICCRES         OFF         [  0]    ***   
       ROT_EVEC             ROTVEC              0               ***   
       SAVE_INTS            ISVINT         OFF         [  0]    ***   
       SCALE_ON             ISTCRT              0               ***   
       SCF_CONV             ISCFCV          10D- 10             ***   
       SCF_DAMPING          IDAMP               0             x 10-3  
       SCF_EXPORDE          IRPPOR              6               ***   
       SCF_EXPSTAR          IRPPLS              8               ***   
       SCF_EXTRAPO          IRPP           ON          [  1]    ***   
       SCF_MAXCYC           ISCFCY            150              cycles 
       SCF_NOSTOP           ISCFST         OFF         [  0]    ***   
       SCF_PRINT            ISCFPR              0               ***   
       SCF_PROG             ISCFPR         SCF         [  0]    ***   
       SD_FIELD             IFINSD              0             x 10-6  
       SOPERT               IPERSO         OFF         [  0]    ***   
       SPHERICAL            IDFGHI         ON          [  1]    ***   
       SPINORBIT            ISOCAL         OFF         [  0]    ***   
       SPINROTATIO          ISRCON         OFF         [  0]    ***   
       SPIN_FLIP            ISPFLP         OFF         [  0]    ***   
       SPIN_ORBIT           ISPORB         OFF         [  0]    ***   
       SPIN_SCAL            ISCSMP         OFF         [  0]    ***   
       STEEPSCALE           ISTPSC              1000          x 10-3  
       SUBGROUP             ISUBGP         DEFAULT     [  0]    ***   
       SUBGRPAXIS           ISBXYZ         X           [  0]    ***   
       SYMMETRY             ISYM           ON          [  0]    ***   
       SYM_CHECK            ISYMCK         OVERRIDE    [  1]    ***   
       T3_EXTRAPOL          IT3EXT         OFF         [  0]    ***   
       T4_EXTRAPOL          IT4EXP         OFF         [  0]    ***   
       TAMP_SUM             IEVERY              5               ***   
       TESTSUITE            ITESTS         OFF         [  0]    ***   
       THERMOCH             ITHERM         OFF         [  0]    ***   
       TOL_CHOLESK          ITOLCH          10D-  4             ***   
       TRANGRAD             IRESRM         OFF         [  0]    ***   
       TRANS_INV            ITRAIN         IGNORE      [  1]    ***   
       TREAT_PERT           ITREAT         SIMULTANEOUS[  0]    ***   
       TRIP_ALGORI          ITRALG         NORMAL      [  0]    ***   
       UIJ_THRESHO          IUIJTH              1               ***   
       UNITS                IUNITS         ANGSTROM    [  0]    ***   
       UNOS                 IUNOS          OFF         [  0]    ***   
       UPDATE_HESS          IHUPDT         ON          [  1]    ***   
       VIBPHASE             ISETPH         STANDARD    [  0]    ***   
       VIBRATION            IVIB           ANALYTIC    [  1]    ***   
       VIB_ALGORIT          IGEALG         STANDARD    [  0]    ***   
       VNATORB              IVNORB         OFF         [  0]    ***   
       VTRAN                IVTRAN         FULL/PARTIAL[  0]    ***   
       XFIELD               IXEFLD              0             x 10-6  
       XFORM_TOL            IXFTOL          10D- 11             ***   
       YFIELD               IYEFLD              0             x 10-6  
       ZFIELD               IZEFLD            200             x 10-6  
       ZSCALE_EXP           IZEXPS         OFF         [  0]    ***   
    -------------------------------------------------------------------
   2 entries found in Z-matrix 
   Job Title : Carbon Monoxide DBOC calculation                                                
   There are  1 unique internal coordinates.
   Of these,  0 will be optimized.
   User supplied Z-matrix: 
--------------------------------------------------------------------------------
       SYMBOL    BOND      LENGTH    ANGLE     ANGLE     DIHED     ANGLE
                  TO      (ANGST)    WRT      (DEG)      WRT      (DEG)
--------------------------------------------------------------------------------
        C    
        O          1         r    
                  *Initial values for internal coordinates* 
                      Name             Value
                        r               1.3965517241
--------------------------------------------------------------------------------
  read isotopes from ZMAT file 
   Rotational constants (in cm-1): 
          1.2004887991             1.2004887991
   Rotational constants (in MHz): 
      35989.7538318213         35989.7538318213
********************************************************************************
   The full molecular point group is CXv .
   The largest Abelian subgroup of the full molecular point group is C2v .
   The computational point group is C2v .
********************************************************************************
--------------------------------------------------------------------------------
   Analysis of internal coordinates specified by Z-matrix 
--------------------------------------------------------------------------------
   *The nuclear repulsion energy is   18.188012918518517 a.u.
   *There is   1 degree of freedom within the tot. symm. molecular subspace.
   *Z-matrix requests optimization of   0 coordinates.
   *The optimization is constrained.
   *The following   1 parameters can have non-zero 
    derivatives within the totally symmetric subspace:
             r    [ 1]
   *The following   0 parameters are to be optimized:

   *The following coordinates must be varied in an  unconstrained optimization.
             r    [ 1]
--------------------------------------------------------------------------------


 ----------------------------------------------------------------
         Coordinates used in calculation (QCOMP) 
 ----------------------------------------------------------------
 Z-matrix   Atomic            Coordinates (in bohr)
  Symbol    Number           X              Y              Z
 ----------------------------------------------------------------
     C         6        -0.00000000     0.00000000     1.58343095
     O         8         0.00000000     0.00000000    -1.05566988
 ----------------------------------------------------------------
 
   Interatomic distance matrix (Angstroms) 
 
                 C             O    
                [ 1]        [ 2]
  C    [ 1]     0.00000
  O    [ 2]     1.39655     0.00000
 rotcon2
   Rotational constants (in cm-1): 
          1.2004887991             0.0000000000
   Rotational constants (in MHz): 
      35989.7538318213             0.0000000000
  ECPDATA file not present.   Using default ECPDATA. 
  @GTFLGS-I, Hessian will be transformed to curvilinear coordinates.
  There are  218 basis functions.
 @CHECKOUT-I, Total execution time (CPU/WALL):        0.17/       0.25 seconds.
--executable xjoda finished with status     0 in        0.27 seconds (walltime).
 --invoking executable--
/nfs/workspaces/public/cfour_mpi/bin/xvmol
 SERIAL VERSION OF MOLECULE STARTED
********************************************************************************
                    INPUT FROM MOL FILE
********************************************************************************
INTGRL        1    0    1    0    0    0    0    0    0                         
         *** CFOUR Program System (Release V0.1) ***                            
Carbon Monoxide DBOC calculation                                                
    2    2 X  Y       0.10E-08              0    0                              
   9999.00      3.00                                                            
          6.00000000    1    5    1    1    1    1    1                         
C #1  -0.000000000000000   0.000000000000000   1.583430950152600                
   16    9                                                                      
   33980.0000000000       9.100000000000000E-005 -1.900000000000000E-005        
  0.000000000000000E+000  0.000000000000000E+000  0.000000000000000E+000        
  0.000000000000000E+000  0.000000000000000E+000  0.000000000000000E+000        
  0.000000000000000E+000                                                        
   5089.00000000000       7.040000000000000E-004 -1.510000000000000E-004        
  0.000000000000000E+000  0.000000000000000E+000  0.000000000000000E+000        
  0.000000000000000E+000  0.000000000000000E+000  0.000000000000000E+000        
  0.000000000000000E+000                                                        
   1157.00000000000       3.693000000000000E-003 -7.850000000000000E-004        
  0.000000000000000E+000  0.000000000000000E+000  0.000000000000000E+000        
  0.000000000000000E+000  0.000000000000000E+000  0.000000000000000E+000        
  0.000000000000000E+000                                                        
   326.600000000000       1.536000000000000E-002 -3.324000000000000E-003        
  0.000000000000000E+000  0.000000000000000E+000  0.000000000000000E+000        
  0.000000000000000E+000  0.000000000000000E+000  0.000000000000000E+000        
  0.000000000000000E+000                                                        
   106.100000000000       5.292900000000000E-002 -1.151200000000000E-002        
  0.000000000000000E+000  0.000000000000000E+000  0.000000000000000E+000        
  0.000000000000000E+000  0.000000000000000E+000  0.000000000000000E+000        
  0.000000000000000E+000                                                        
   38.1100000000000       0.147043000000000      -3.416000000000000E-002        
  0.000000000000000E+000  0.000000000000000E+000  0.000000000000000E+000        
  0.000000000000000E+000  0.000000000000000E+000  0.000000000000000E+000        
  0.000000000000000E+000                                                        
   14.7500000000000       0.305631000000000      -7.717300000000001E-002        
  0.000000000000000E+000  0.000000000000000E+000  0.000000000000000E+000        
  0.000000000000000E+000  0.000000000000000E+000  0.000000000000000E+000        
  0.000000000000000E+000                                                        
   6.03500000000000       0.399345000000000      -0.141493000000000             
  0.000000000000000E+000  0.000000000000000E+000  0.000000000000000E+000        
  0.000000000000000E+000  0.000000000000000E+000  0.000000000000000E+000        
  0.000000000000000E+000                                                        
   2.53000000000000       0.217051000000000      -0.118019000000000             
  0.000000000000000E+000  0.000000000000000E+000  0.000000000000000E+000        
  0.000000000000000E+000  0.000000000000000E+000  0.000000000000000E+000        
  0.000000000000000E+000                                                        
  0.735500000000000       1.589400000000000E-002  0.273806000000000             
   1.00000000000000       0.000000000000000E+000  0.000000000000000E+000        
  0.000000000000000E+000  0.000000000000000E+000  0.000000000000000E+000        
  0.000000000000000E+000                                                        
  0.290500000000000      -3.084000000000000E-003  0.586510000000000             
  0.000000000000000E+000   1.00000000000000       0.000000000000000E+000        
  0.000000000000000E+000  0.000000000000000E+000  0.000000000000000E+000        
  0.000000000000000E+000                                                        
  0.111100000000000       9.779999999999999E-004  0.285430000000000             
  0.000000000000000E+000  0.000000000000000E+000   1.00000000000000             
  0.000000000000000E+000  0.000000000000000E+000  0.000000000000000E+000        
  0.000000000000000E+000                                                        
   7.21600000000000       0.000000000000000E+000  0.000000000000000E+000        
  0.000000000000000E+000  0.000000000000000E+000  0.000000000000000E+000        
   1.00000000000000       0.000000000000000E+000  0.000000000000000E+000        
  0.000000000000000E+000                                                        
   19.5700000000000       0.000000000000000E+000  0.000000000000000E+000        
  0.000000000000000E+000  0.000000000000000E+000  0.000000000000000E+000        
  0.000000000000000E+000   1.00000000000000       0.000000000000000E+000        
  0.000000000000000E+000                                                        
   53.0730000000000       0.000000000000000E+000  0.000000000000000E+000        
  0.000000000000000E+000  0.000000000000000E+000  0.000000000000000E+000        
  0.000000000000000E+000  0.000000000000000E+000   1.00000000000000             
  0.000000000000000E+000                                                        
  4.145000000000000E-002  0.000000000000000E+000  0.000000000000000E+000        
  0.000000000000000E+000  0.000000000000000E+000  0.000000000000000E+000        
  0.000000000000000E+000  0.000000000000000E+000  0.000000000000000E+000        
   1.00000000000000                                                             
   10    8                                                                      
   34.5100000000000       5.378000000000000E-003  0.000000000000000E+000        
  0.000000000000000E+000  0.000000000000000E+000  0.000000000000000E+000        
  0.000000000000000E+000  0.000000000000000E+000  0.000000000000000E+000        
   7.91500000000000       3.613200000000000E-002  0.000000000000000E+000        
  0.000000000000000E+000  0.000000000000000E+000  0.000000000000000E+000        
  0.000000000000000E+000  0.000000000000000E+000  0.000000000000000E+000        
   2.36800000000000       0.142493000000000       0.000000000000000E+000        
  0.000000000000000E+000  0.000000000000000E+000  0.000000000000000E+000        
  0.000000000000000E+000  0.000000000000000E+000  0.000000000000000E+000        
  0.813200000000000       0.342150000000000        1.00000000000000             
  0.000000000000000E+000  0.000000000000000E+000  0.000000000000000E+000        
  0.000000000000000E+000  0.000000000000000E+000  0.000000000000000E+000        
  0.289000000000000       0.463864000000000       0.000000000000000E+000        
   1.00000000000000       0.000000000000000E+000  0.000000000000000E+000        
  0.000000000000000E+000  0.000000000000000E+000  0.000000000000000E+000        
  0.100700000000000       0.250028000000000       0.000000000000000E+000        
  0.000000000000000E+000   1.00000000000000       0.000000000000000E+000        
  0.000000000000000E+000  0.000000000000000E+000  0.000000000000000E+000        
   8.18200000000000       0.000000000000000E+000  0.000000000000000E+000        
  0.000000000000000E+000  0.000000000000000E+000   1.00000000000000             
  0.000000000000000E+000  0.000000000000000E+000  0.000000000000000E+000        
   24.1860000000000       0.000000000000000E+000  0.000000000000000E+000        
  0.000000000000000E+000  0.000000000000000E+000  0.000000000000000E+000        
   1.00000000000000       0.000000000000000E+000  0.000000000000000E+000        
   71.4940000000000       0.000000000000000E+000  0.000000000000000E+000        
  0.000000000000000E+000  0.000000000000000E+000  0.000000000000000E+000        
  0.000000000000000E+000   1.00000000000000       0.000000000000000E+000        
  3.218000000000000E-002  0.000000000000000E+000  0.000000000000000E+000        
  0.000000000000000E+000  0.000000000000000E+000  0.000000000000000E+000        
  0.000000000000000E+000  0.000000000000000E+000   1.00000000000000             
    6    6                                                                      
   1.84800000000000        1.00000000000000       0.000000000000000E+000        
  0.000000000000000E+000  0.000000000000000E+000  0.000000000000000E+000        
  0.000000000000000E+000                                                        
  0.649000000000000       0.000000000000000E+000   1.00000000000000             
  0.000000000000000E+000  0.000000000000000E+000  0.000000000000000E+000        
  0.000000000000000E+000                                                        
  0.228000000000000       0.000000000000000E+000  0.000000000000000E+000        
   1.00000000000000       0.000000000000000E+000  0.000000000000000E+000        
  0.000000000000000E+000                                                        
   8.65600000000000       0.000000000000000E+000  0.000000000000000E+000        
  0.000000000000000E+000   1.00000000000000       0.000000000000000E+000        
  0.000000000000000E+000                                                        
   33.2130000000000       0.000000000000000E+000  0.000000000000000E+000        
  0.000000000000000E+000  0.000000000000000E+000   1.00000000000000             
  0.000000000000000E+000                                                        
  7.660000000000000E-002  0.000000000000000E+000  0.000000000000000E+000        
  0.000000000000000E+000  0.000000000000000E+000  0.000000000000000E+000        
   1.00000000000000                                                             
    4    4                                                                      
   1.41900000000000        1.00000000000000       0.000000000000000E+000        
  0.000000000000000E+000  0.000000000000000E+000                                
  0.485000000000000       0.000000000000000E+000   1.00000000000000             
  0.000000000000000E+000  0.000000000000000E+000                                
   24.6940000000000       0.000000000000000E+000  0.000000000000000E+000        
   1.00000000000000       0.000000000000000E+000                                
  0.187000000000000       0.000000000000000E+000  0.000000000000000E+000        
  0.000000000000000E+000   1.00000000000000                                     
    2    2                                                                      
   1.01100000000000        1.00000000000000       0.000000000000000E+000        
  0.424000000000000       0.000000000000000E+000   1.00000000000000             
          8.00000000    1    5    1    1    1    1    1                         
O #2   0.000000000000000   0.000000000000000  -1.055669880434988                
   16    9                                                                      
   61420.0000000000       9.000000000000001E-005 -2.000000000000000E-005        
  0.000000000000000E+000  0.000000000000000E+000  0.000000000000000E+000        
  0.000000000000000E+000  0.000000000000000E+000  0.000000000000000E+000        
  0.000000000000000E+000                                                        
   9199.00000000000       6.980000000000001E-004 -1.590000000000000E-004        
  0.000000000000000E+000  0.000000000000000E+000  0.000000000000000E+000        
  0.000000000000000E+000  0.000000000000000E+000  0.000000000000000E+000        
  0.000000000000000E+000                                                        
   2091.00000000000       3.664000000000000E-003 -8.290000000000000E-004        
  0.000000000000000E+000  0.000000000000000E+000  0.000000000000000E+000        
  0.000000000000000E+000  0.000000000000000E+000  0.000000000000000E+000        
  0.000000000000000E+000                                                        
   590.900000000000       1.521800000000000E-002 -3.508000000000000E-003        
  0.000000000000000E+000  0.000000000000000E+000  0.000000000000000E+000        
  0.000000000000000E+000  0.000000000000000E+000  0.000000000000000E+000        
  0.000000000000000E+000                                                        
   192.300000000000       5.242300000000000E-002 -1.215600000000000E-002        
  0.000000000000000E+000  0.000000000000000E+000  0.000000000000000E+000        
  0.000000000000000E+000  0.000000000000000E+000  0.000000000000000E+000        
  0.000000000000000E+000                                                        
   69.3200000000000       0.145921000000000      -3.626100000000000E-002        
  0.000000000000000E+000  0.000000000000000E+000  0.000000000000000E+000        
  0.000000000000000E+000  0.000000000000000E+000  0.000000000000000E+000        
  0.000000000000000E+000                                                        
   26.9700000000000       0.305258000000000      -8.299200000000000E-002        
  0.000000000000000E+000  0.000000000000000E+000  0.000000000000000E+000        
  0.000000000000000E+000  0.000000000000000E+000  0.000000000000000E+000        
  0.000000000000000E+000                                                        
   11.1000000000000       0.398508000000000      -0.152090000000000             
  0.000000000000000E+000  0.000000000000000E+000  0.000000000000000E+000        
  0.000000000000000E+000  0.000000000000000E+000  0.000000000000000E+000        
  0.000000000000000E+000                                                        
   4.68200000000000       0.216980000000000      -0.115331000000000             
  0.000000000000000E+000  0.000000000000000E+000  0.000000000000000E+000        
  0.000000000000000E+000  0.000000000000000E+000  0.000000000000000E+000        
  0.000000000000000E+000                                                        
   1.42800000000000       1.759400000000000E-002  0.288979000000000             
   1.00000000000000       0.000000000000000E+000  0.000000000000000E+000        
  0.000000000000000E+000  0.000000000000000E+000  0.000000000000000E+000        
  0.000000000000000E+000                                                        
  0.554700000000000      -2.502000000000000E-003  0.586128000000000             
  0.000000000000000E+000   1.00000000000000       0.000000000000000E+000        
  0.000000000000000E+000  0.000000000000000E+000  0.000000000000000E+000        
  0.000000000000000E+000                                                        
  0.206700000000000       9.540000000000000E-004  0.277624000000000             
  0.000000000000000E+000  0.000000000000000E+000   1.00000000000000             
  0.000000000000000E+000  0.000000000000000E+000  0.000000000000000E+000        
  0.000000000000000E+000                                                        
   12.9740000000000       0.000000000000000E+000  0.000000000000000E+000        
  0.000000000000000E+000  0.000000000000000E+000  0.000000000000000E+000        
   1.00000000000000       0.000000000000000E+000  0.000000000000000E+000        
  0.000000000000000E+000                                                        
   34.9000000000000       0.000000000000000E+000  0.000000000000000E+000        
  0.000000000000000E+000  0.000000000000000E+000  0.000000000000000E+000        
  0.000000000000000E+000   1.00000000000000       0.000000000000000E+000        
  0.000000000000000E+000                                                        
   93.8810000000000       0.000000000000000E+000  0.000000000000000E+000        
  0.000000000000000E+000  0.000000000000000E+000  0.000000000000000E+000        
  0.000000000000000E+000  0.000000000000000E+000   1.00000000000000             
  0.000000000000000E+000                                                        
  6.959000000000000E-002  0.000000000000000E+000  0.000000000000000E+000        
  0.000000000000000E+000  0.000000000000000E+000  0.000000000000000E+000        
  0.000000000000000E+000  0.000000000000000E+000  0.000000000000000E+000        
   1.00000000000000                                                             
   10    8                                                                      
   63.4200000000000       6.044000000000000E-003  0.000000000000000E+000        
  0.000000000000000E+000  0.000000000000000E+000  0.000000000000000E+000        
  0.000000000000000E+000  0.000000000000000E+000  0.000000000000000E+000        
   14.6600000000000       4.179900000000000E-002  0.000000000000000E+000        
  0.000000000000000E+000  0.000000000000000E+000  0.000000000000000E+000        
  0.000000000000000E+000  0.000000000000000E+000  0.000000000000000E+000        
   4.45900000000000       0.161143000000000       0.000000000000000E+000        
  0.000000000000000E+000  0.000000000000000E+000  0.000000000000000E+000        
  0.000000000000000E+000  0.000000000000000E+000  0.000000000000000E+000        
   1.53100000000000       0.356731000000000        1.00000000000000             
  0.000000000000000E+000  0.000000000000000E+000  0.000000000000000E+000        
  0.000000000000000E+000  0.000000000000000E+000  0.000000000000000E+000        
  0.530200000000000       0.448309000000000       0.000000000000000E+000        
   1.00000000000000       0.000000000000000E+000  0.000000000000000E+000        
  0.000000000000000E+000  0.000000000000000E+000  0.000000000000000E+000        
  0.175000000000000       0.244940000000000       0.000000000000000E+000        
  0.000000000000000E+000   1.00000000000000       0.000000000000000E+000        
  0.000000000000000E+000  0.000000000000000E+000  0.000000000000000E+000        
   14.4750000000000       0.000000000000000E+000  0.000000000000000E+000        
  0.000000000000000E+000  0.000000000000000E+000   1.00000000000000             
  0.000000000000000E+000  0.000000000000000E+000  0.000000000000000E+000        
   42.7300000000000       0.000000000000000E+000  0.000000000000000E+000        
  0.000000000000000E+000  0.000000000000000E+000  0.000000000000000E+000        
   1.00000000000000       0.000000000000000E+000  0.000000000000000E+000        
   126.140000000000       0.000000000000000E+000  0.000000000000000E+000        
  0.000000000000000E+000  0.000000000000000E+000  0.000000000000000E+000        
  0.000000000000000E+000   1.00000000000000       0.000000000000000E+000        
  5.348000000000000E-002  0.000000000000000E+000  0.000000000000000E+000        
  0.000000000000000E+000  0.000000000000000E+000  0.000000000000000E+000        
  0.000000000000000E+000  0.000000000000000E+000   1.00000000000000             
    6    6                                                                      
   3.77500000000000        1.00000000000000       0.000000000000000E+000        
  0.000000000000000E+000  0.000000000000000E+000  0.000000000000000E+000        
  0.000000000000000E+000                                                        
   1.30000000000000       0.000000000000000E+000   1.00000000000000             
  0.000000000000000E+000  0.000000000000000E+000  0.000000000000000E+000        
  0.000000000000000E+000                                                        
  0.444000000000000       0.000000000000000E+000  0.000000000000000E+000        
   1.00000000000000       0.000000000000000E+000  0.000000000000000E+000        
  0.000000000000000E+000                                                        
   14.9270000000000       0.000000000000000E+000  0.000000000000000E+000        
  0.000000000000000E+000   1.00000000000000       0.000000000000000E+000        
  0.000000000000000E+000                                                        
   57.5440000000000       0.000000000000000E+000  0.000000000000000E+000        
  0.000000000000000E+000  0.000000000000000E+000   1.00000000000000             
  0.000000000000000E+000                                                        
  0.154000000000000       0.000000000000000E+000  0.000000000000000E+000        
  0.000000000000000E+000  0.000000000000000E+000  0.000000000000000E+000        
   1.00000000000000                                                             
    4    4                                                                      
   2.66600000000000        1.00000000000000       0.000000000000000E+000        
  0.000000000000000E+000  0.000000000000000E+000                                
  0.859000000000000       0.000000000000000E+000   1.00000000000000             
  0.000000000000000E+000  0.000000000000000E+000                                
   26.4830000000000       0.000000000000000E+000  0.000000000000000E+000        
   1.00000000000000       0.000000000000000E+000                                
  0.324000000000000       0.000000000000000E+000  0.000000000000000E+000        
  0.000000000000000E+000   1.00000000000000                                     
    2    2                                                                      
   1.84600000000000        1.00000000000000       0.000000000000000E+000        
  0.714000000000000       0.000000000000000E+000   1.00000000000000             
FINISH                                                                          
 
********************************************************************************
 ONE- AND TWO-ELECTRON INTEGRALS OVER SYMMETRY-ADAPTED AOS ARE CALCULATED.

  SPHERICAL HARMONICS ARE USED.
  
  INTEGRALS LESS THAN  0.10E-13 ARE NEGLECTED.

  NUCLEAR REPULSION ENERGY :   18.1880129185 A.U.
  @MOLECU-I, ONE ELECTRON INTEGRALS (CPU/WALL):        0.06/       0.08 SECONDS.
  @TWOEL-I,    4497886 INTEGRALS OF SYMMETRY TYPE  I I I I
  @TWOEL-I,   19389719 INTEGRALS OF SYMMETRY TYPE  I J I J
  @TWOEL-I,   10209254 INTEGRALS OF SYMMETRY TYPE  I I J J
  @TWOEL-I,   14352738 INTEGRALS OF SYMMETRY TYPE  I J K L
  @TWOEL-I, TOTAL NUMBER OF 2-E INTEGRALS   48449597.
  @MOLECU-I, TWO ELECTRON INTEGRALS (CPU/WALL):      220.66/      30.49 SECONDS.
 @CHECKOUT-I, Total execution time (CPU/WALL):      220.73/      30.60 seconds.

Running with 14 threads/proc

--executable xvmol finished with status     0 in       30.64 seconds (walltime).
 --invoking executable--
/nfs/workspaces/public/cfour_mpi/bin/xvmol2ja
 @GETMEM-I,  Allocated    3814 MB of main memory.
 @CHECKOUT-I, Total execution time (CPU/WALL):        0.84/       0.17 seconds.
--executable xvmol2ja finished with status     0 in        0.22 seconds (walltime).
 --invoking executable--
/nfs/workspaces/public/cfour_mpi/bin/xvprop
 @GETMEM-I,  Allocated    3814 MB of main memory.
   Property integrals will be calculated.
    --------------------------------------------------------------
                                   Property evaluated at 
    Property type                X             Y             Z
    --------------------------------------------------------------
    Dipole moment               ----          ----          ----  
    Quadrupole moment           ----          ----          ----  
    Octopole moment             ----          ----          ----  
    Relativisitic corr.         ----          ----          ----  
    Second moment            0.0000000     0.0000000     0.0000000
    Electron density         0.0000000     0.0000000     1.5834310
    Electron density         0.0000000     0.0000000    -1.0556699
    Field gradient           0.0000000     0.0000000     1.5834310
    Field gradient           0.0000000     0.0000000    -1.0556699
    Potential                0.0000000     0.0000000     1.5834310
    Potential                0.0000000     0.0000000    -1.0556699
    --------------------------------------------------------------
 @CHECKOUT-I, Total execution time (CPU/WALL):        1.31/       1.37 seconds.
--executable xvprop finished with status     0 in        1.39 seconds (walltime).
 --invoking executable--
/nfs/workspaces/public/cfour_mpi/bin/xvscf
  There are  218 functions in the AO basis.

  There are 4 irreducible representations.

       Irrep        # of functions
         1                 86
         2                 52
         3                 52
         4                 28


  Parameters for SCF calculation: 
        SCF reference function:  RHF  
  Maximum number of iterations:  150
     Full symmetry point group: CXv 
     Computational point group: C2v 
        Initial density matrix: MOREAD                 
     SCF convergence tolerance: 10**(-10)
  DIIS convergence acceleration:  ON
          Latest start for DIIS:   8
                     DIIS order:   6

  Memory information:    2523578 words required.
  Fock matrices are constructed from AO integral file.
 @GETMEM-I,  Allocated      19 MB of main memory.
  Initialization and symmetry analysis required      0.001 seconds.

  Adding electric field perturbation to one-electron Hamiltonian.
  Field direction     : Z
  Field strength      :  0.0002000 a.u.

  @INITGES-I, Occupancies from core Hamiltonian:

          Alpha population by irrep:   5    1    1    0
           Beta population by irrep:   5    1    1    0


 total no. of electrons in initial guess :  0.000000000000000E+000
  --------------------------------------------------------------------
  Iteration         Total Energy            Largest Density Difference
  --------------------------------------------------------------------
       0            18.187801873187563              0.0000000000D+00
   current occupation vector 
     5  1  1  0
     5  1  1  0
       1           -93.159361126115996              0.1763767274D+02
   current occupation vector 
     5  1  1  0
     5  1  1  0
       2           -98.371493367209226              0.1763500431D+02
   current occupation vector 
     5  1  1  0
     5  1  1  0
       3          -103.308812441045049              0.6678884531D+01
   current occupation vector 
     5  1  1  0
     5  1  1  0
       4           -98.587380700978798              0.6672070175D+01
   current occupation vector 
     5  1  1  0
     5  1  1  0
       5          -101.292888301096511              0.6449008389D+01
   current occupation vector 
     5  1  1  0
     5  1  1  0
       6           -97.014234261869731              0.6436054828D+01
   current occupation vector 
     5  1  1  0
     5  1  1  0
       7          -101.271307841369904              0.6576403073D+01
   current occupation vector 
     5  1  1  0
     5  1  1  0
       8           -96.928707040192421              0.6576405075D+01
   current occupation vector 
     5  1  1  0
     5  1  1  0
       9          -108.167573619041988              0.5045536504D+01
   current occupation vector 
     5  1  1  0
     5  1  1  0
      10          -110.065982262973705              0.9994685635D+00
   current occupation vector 
     5  1  1  0
     5  1  1  0
      11          -112.399322733871145              0.1363075561D+01
   current occupation vector 
     5  1  1  0
     5  1  1  0
      12          -112.659008237672623              0.5145052358D+00
   current occupation vector 
     5  1  1  0
     5  1  1  0
      13          -112.661492926496095              0.8210290063D-01
   current occupation vector 
     5  1  1  0
     5  1  1  0
      14          -112.661991320734529              0.3311228764D-01
   current occupation vector 
     5  1  1  0
     5  1  1  0
      15          -112.662023880834823              0.9367319206D-02
   current occupation vector 
     5  1  1  0
     5  1  1  0
      16          -112.662025369638656              0.2153831216D-02
   current occupation vector 
     5  1  1  0
     5  1  1  0
      17          -112.662025589267387              0.9685783454D-03
   current occupation vector 
     5  1  1  0
     5  1  1  0
      18          -112.662025624681348              0.3907394931D-03
   current occupation vector 
     5  1  1  0
     5  1  1  0
      19          -112.662025625984825              0.9634759335D-04
   current occupation vector 
     5  1  1  0
     5  1  1  0
      20          -112.662025626000087              0.4034435079D-05
   current occupation vector 
     5  1  1  0
     5  1  1  0
      21          -112.662025626001736              0.7004242033D-06
   current occupation vector 
     5  1  1  0
     5  1  1  0
      22          -112.662025626002730              0.1252388650D-06
   current occupation vector 
     5  1  1  0
     5  1  1  0
      23          -112.662025626002958              0.2756473338D-07
   current occupation vector 
     5  1  1  0
     5  1  1  0
      24          -112.662025626002787              0.3394714954D-08
   current occupation vector 
     5  1  1  0
     5  1  1  0
      25          -112.662025626001281              0.1006400518D-08
   current occupation vector 
     5  1  1  0
     5  1  1  0
      26          -112.662025626002645              0.3498086265D-09
   current occupation vector 
     5  1  1  0
     5  1  1  0
      27          -112.662025626003867              0.1861781840D-09
   current occupation vector 
     5  1  1  0
     5  1  1  0

  SCF has converged.

 Density matrix saved to file den.dat
 total electron number:   14.0000000000000     
     E(SCF)=      -112.662025626003810              0.8513377503D-11

  Eigenvector printing suppressed.

 @PUTMOS-I, Writing converged MOs to NEWMOS. 
 @PUTMOS-I, Symmetry   1 Full Blocks 21 Partial Blocksize   2
 @PUTMOS-I, Symmetry   2 Full Blocks 13 Partial Blocksize   0
 @PUTMOS-I, Symmetry   3 Full Blocks 13 Partial Blocksize   0
 @PUTMOS-I, Symmetry   4 Full Blocks  7 Partial Blocksize   0
 @PUTFOCK-I, Writing converged Fock matrix to NEWFOCK. 
 @PUTFOCK-I, Symmetry   1 Full Blocks 21 Partial Blocksize   2
 @PUTFOCK-I, Symmetry   2 Full Blocks 13 Partial Blocksize   0
 @PUTFOCK-I, Symmetry   3 Full Blocks 13 Partial Blocksize   0
 @PUTFOCK-I, Symmetry   4 Full Blocks  7 Partial Blocksize   0


 
  ORBITAL EIGENVALUES (ALPHA)  (1H = 27.2113834 eV)

       MO #        E(hartree)               E(eV)           FULLSYM    COMPSYM
       ----   --------------------   --------------------   -------   ---------
    1     1         -20.6612260506        -562.2205435776     SG+        A1 (1)
    2     2         -11.4676916592        -312.0517544527     SG+        A1 (1)
    3     3          -1.3614256122         -37.0462743047     SG+        A1 (1)
    4     4          -0.7933014647         -21.5868303086     SG+        A1 (1)
    5     5          -0.5617295062         -15.2854369605     SG+        A1 (1)
    6    87          -0.5448732178         -14.8267540339      PI        B1 (2)
    7   139          -0.5448732178         -14.8267540339      PI        B2 (3)
  +++++++++++++++++++++++++++++++++++++++++++++++++++++++++++++++++++++++++++++
    8    88           0.0337306364           0.9178572792      PI        B1 (2)
    9   140           0.0337306364           0.9178572792      PI        B2 (3)
   10     6           0.0636844883           1.7329430280     SG+        A1 (1)
   11     7           0.0695743890           1.8932153742     SG+        A1 (1)
   12   141           0.0905549935           2.4641266475      PI        B2 (3)
   13    89           0.0905549935           2.4641266475      PI        B1 (2)
   14     8           0.1565569509           4.2601312137     SG+        A1 (1)
   15    90           0.1720232841           4.6809915371      PI        B1 (2)
   16   142           0.1720232841           4.6809915371      PI        B2 (3)
   17     9           0.2250766795           6.1246478215     SG+        A1 (1)
   18    10           0.2257553359           6.1431149996      DE        A1 (1)
   19   191           0.2257553359           6.1431149996      DE        A2 (4)
   20   143           0.2980079377           8.1092082485      PI        B2 (3)
   21    91           0.2980079377           8.1092082485      PI        B1 (2)
   22    11           0.2995032021           8.1498964630     SG+        A1 (1)
   23    12           0.3691944955          10.0462929649     SG+        A1 (1)
   24   144           0.3989163124          10.8550647217      PI        B2 (3)
   25    92           0.3989163124          10.8550647217      PI        B1 (2)
   26    13           0.4932642417          13.4224023974     SG+        A1 (1)
   27    14           0.5117469439          13.9253422949     SG+        A1 (1)
   28   192           0.5464631626          14.8700186304      DE        A2 (4)
   29    15           0.5464631626          14.8700186304      DE        A1 (1)
   30   145           0.6247579669          17.0005285700      PI        B2 (3)
   31    93           0.6247579669          17.0005285700      PI        B1 (2)
   32    16           0.7353898141          20.0109741789     SG+        A1 (1)
   33   146           0.7406930368          20.1552822063      PH        B2 (3)
   34    94           0.7406930368          20.1552822063      PH        B1 (2)
   35    17           0.7528864680          20.4870823387      DE        A1 (1)
   36   193           0.7528864680          20.4870823387      DE        A2 (4)
   37   147           0.7936380781          21.5959900242      PI        B2 (3)
   38    95           0.7936380781          21.5959900242      PI        B1 (2)
   39    18           0.8253918794          22.4600548858     SG+        A1 (1)
   40    19           0.8677122856          23.6116516855     SG+        A1 (1)
   41   194           0.8748303108          23.8053429983      DE        A2 (4)
   42    20           0.8748303108          23.8053429984      DE        A1 (1)
   43   148           0.8977497179          24.4290117704      PI        B2 (3)
   44    96           0.8977497179          24.4290117704      PI        B1 (2)
   45   149           1.0346951764          28.1554871463      PI        B2 (3)
   46    97           1.0346951764          28.1554871463      PI        B1 (2)
   47    21           1.1231008302          30.5611272873     SG+        A1 (1)
   48    22           1.4017641930          38.1439428931     SG+        A1 (1)
   49   150           1.4291575284          38.8893534439      PH        B2 (3)
   50    98           1.4291575284          38.8893534439      PH        B1 (2)
   51   151           1.5565892430          42.3569466868      PI        B2 (3)
   52    99           1.5565892430          42.3569466868      PI        B1 (2)
   53    23           1.5620648692          42.5059460510      DE        A1 (1)
   54   195           1.5620648692          42.5059460510      DE        A2 (4)
   55    24           1.6336023286          44.4525792869     SG+        A1 (1)
   56   152           1.6494716431          44.8844052887      PI        B2 (3)
   57   100           1.6494716431          44.8844052887      PI        B1 (2)
   58   196           1.7183872779          46.7596950475      DE        A2 (4)
   59    25           1.7183872779          46.7596950475      DE        A1 (1)
   60    26           1.8774473324          51.0879391748     SG+        A1 (1)
   61    27           2.0113104874          54.7305408083     SG+        A1 (1)
   62   153           2.0828287193          56.6766508364      PI        B2 (3)
   63   101           2.0828287193          56.6766508364      PI        B1 (2)
   64   197           2.0851453776          56.7396903134      PI        A2 (4)
   65    28           2.0851453776          56.7396903134      PI        A1 (1)
   66    29           2.1509418329          58.5301028860      DE        A1 (1)
   67   198           2.1509418329          58.5301028860      DE        A2 (4)
   68   102           2.2266077651          60.5890775766      PH        B1 (2)
   69   154           2.2266077651          60.5890775766      PH        B2 (3)
   70   103           2.2658286542          61.6563322280      PI        B1 (2)
   71   155           2.2658286542          61.6563322280      PI        B2 (3)
   72   156           2.2693430085          61.7519626707      PH        B2 (3)
   73   104           2.2693430085          61.7519626707      PH        B1 (2)
   74    30           2.2733799524          61.8618134982     SG+        A1 (1)
   75    31           2.3173659529          63.0587334216      DE        A1 (1)
   76   199           2.3173659529          63.0587334216      DE        A2 (4)
   77    32           2.4984462663          67.9861792558     SG+        A1 (1)
   78   157           2.5268601666          68.7593607924      PI        B2 (3)
   79   105           2.5268601666          68.7593607924      PI        B1 (2)
   80    33           2.6165692453          71.2004689255     SG+        A1 (1)
   81   106           2.6490035253          72.0830505543      PI        B1 (2)
   82   158           2.6490035253          72.0830505543      PI        B2 (3)
   83    34           2.7835773907          75.7449916010      DE        A1 (1)
   84   200           2.7835773907          75.7449916010      DE        A2 (4)
   85    35           3.2528301021          88.5140070446     SG+        A1 (1)
   86   159           3.5740355294          97.2544510746      PI        B2 (3)
   87   107           3.5740355294          97.2544510746      PI        B1 (2)
   88   201           3.7011290841         100.7128425205      PI        A2 (4)
   89    36           3.7011290841         100.7128425205      PI        A1 (1)
   90    37           3.9011393120         106.1553975145     SG+        A1 (1)
   91   160           4.0228021040         109.4660103945      PH        B2 (3)
   92   108           4.0228021040         109.4660103945      PH        B1 (2)
   93   109           4.1264107375         112.2853446427      PH        B1 (2)
   94   161           4.1264107375         112.2853446427      PH        B2 (3)
   95   162           4.1692019021         113.4497514292      PI        B2 (3)
   96   110           4.1692019021         113.4497514292      PI        B1 (2)
   97    38           4.2087455803         114.5257896173     SG+        A1 (1)
   98    39           4.2212389428         114.8657512965      DE        A1 (1)
   99   202           4.2212389428         114.8657512965      DE        A2 (4)
  100   203           4.2792951140         116.4455400298      DE        A2 (4)
  101    40           4.2792951140         116.4455400298      DE        A1 (1)
  102    41           4.4009170508         119.7550411818     SG+        A1 (1)
  103   163           4.7229149618         128.5170497922      PI        B2 (3)
  104   111           4.7229149618         128.5170497922      PI        B1 (2)
  105    42           4.8859802748         132.9542825421      DE        A1 (1)
  106   204           4.8859802748         132.9542825421      DE        A2 (4)
  107    43           4.9336060814         134.2502466248     SG+        A1 (1)
  108   164           5.0770179096         138.1526808665      PI        B2 (3)
  109   112           5.0770179096         138.1526808665      PI        B1 (2)
  110    44           5.3790192227         146.3705543852     SG+        A1 (1)
  111   165           5.4836097398         149.2166070445      PI        B2 (3)
  112   113           5.4836097398         149.2166070446      PI        B1 (2)
  113   205           5.8587913018         159.4258163735      PI        A2 (4)
  114    45           5.8587913018         159.4258163735      PI        A1 (1)
  115   166           5.9548968593         162.0409815447      PH        B2 (3)
  116   114           5.9548968593         162.0409815447      PH        B1 (2)
  117    46           6.1709313460         167.9195787901     SG+        A1 (1)
  118   206           6.1935435345         168.5348877205      DE        A2 (4)
  119    47           6.1935435345         168.5348877206      DE        A1 (1)
  120   115           6.2186745839         169.2187383432      PI        B1 (2)
  121   167           6.2186745839         169.2187383432      PI        B2 (3)
  122    48           6.3299136682         172.2457077137     SG+        A1 (1)
  123   168           6.3925608928         173.9504253627      PH        B2 (3)
  124   116           6.3925608928         173.9504253627      PH        B1 (2)
  125   207           6.5248463495         177.5500956412      DE        A2 (4)
  126    49           6.5248463495         177.5500956412      DE        A1 (1)
  127    50           6.5730266244         178.8611475739      DE        A1 (1)
  128   208           6.5730266244         178.8611475740      DE        A2 (4)
  129   169           6.9907320386         190.2274897502      PI        B2 (3)
  130   117           6.9907320386         190.2274897502      PI        B1 (2)
  131    51           7.2872424717         198.2959488273     SG+        A1 (1)
  132   170           7.7036937578         209.6281644402      PI        B2 (3)
  133   118           7.7036937578         209.6281644402      PI        B1 (2)
  134    52           8.2886487278         225.5455983989     SG+        A1 (1)
  135    53           9.7718926150         265.9067164904     SG+        A1 (1)
  136   119           9.9761422762         271.4646323315      PI        B1 (2)
  137   171           9.9761422762         271.4646323317      PI        B2 (3)
  138    54          10.6268082999         289.1701549662      PI        A1 (1)
  139   209          10.6268082999         289.1701549662      PI        A2 (4)
  140   172          10.7692631182         293.0465476454      PH        B2 (3)
  141   120          10.7692631182         293.0465476454      PH        B1 (2)
  142    55          10.7750474393         293.2039470242     SG+        A1 (1)
  143    56          11.0036955907         299.4257795344      DE        A1 (1)
  144   210          11.0036955907         299.4257795344      DE        A2 (4)
  145   121          11.0712597013         301.2642924528      PI        B1 (2)
  146   173          11.0712597013         301.2642924528      PI        B2 (3)
  147    57          11.3680903888         309.3414660946     SG+        A1 (1)
  148   122          11.8688592390         322.9680792724      PH        B1 (2)
  149   174          11.8688592390         322.9680792724      PH        B2 (3)
  150   211          12.0660578885         328.3341273307      DE        A2 (4)
  151    58          12.0660578885         328.3341273309      DE        A1 (1)
  152   123          12.5988969817         342.8334161858      PI        B1 (2)
  153   175          12.5988969817         342.8334161858      PI        B2 (3)
  154    59          12.7615018515         347.2581196400      DE        A1 (1)
  155   212          12.7615018515         347.2581196400      DE        A2 (4)
  156    60          12.8956873040         350.9094914366     SG+        A1 (1)
  157   176          13.1301732946         357.2901796267      PI        B2 (3)
  158   124          13.1301732946         357.2901796267      PI        B1 (2)
  159    61          13.9991362473         380.9358636950     SG+        A1 (1)
  160    62          17.5262456117         476.9133889034     SG+        A1 (1)
  161   177          18.9022736571         514.3570156158      PI        B2 (3)
  162   125          18.9022736571         514.3570156160      PI        B1 (2)
  163    63          20.3113735199         552.7005722299     SG+        A1 (1)
  164   213          26.3349167054         716.6095152788      DE        A2 (4)
  165    64          26.3349167054         716.6095152788      DE        A1 (1)
  166   178          26.7470480745         727.8241799735      PI        B2 (3)
  167   126          26.7470480745         727.8241799735      PI        B1 (2)
  168    65          27.2721891299         742.1139945699     SG+        A1 (1)
  169   127          33.6282369929         915.0708498796      PI        B1 (2)
  170   179          33.6282369929         915.0708498803      PI        B2 (3)
  171    66          34.3759290433         935.4165849297     SG+        A1 (1)
  172    67          36.0196537129         980.1446071160     SG+        A1 (1)
  173    68          47.0793325126        1281.0937672157      DE        A1 (1)
  174   214          47.0793325126        1281.0937672158      DE        A2 (4)
  175   180          47.2739723059        1286.3901852580      PI        B2 (3)
  176   128          47.2739723059        1286.3901852581      PI        B1 (2)
  177    69          47.8086018461        1300.9381946532     SG+        A1 (1)
  178    70          63.9148598673        1739.2117568073     SG+        A1 (1)
  179   181          66.4490784095        1808.1713491776      PI        B2 (3)
  180   129          66.4490784095        1808.1713491778      PI        B1 (2)
  181    71          67.4598754679        1835.6765354745     SG+        A1 (1)
  182   130          98.5636063722        2682.0520822795      PH        B1 (2)
  183   182          98.5636063722        2682.0520822795      PH        B2 (3)
  184   215          98.5772471298        2682.4232661645      DE        A2 (4)
  185    72          98.5772471298        2682.4232661646      DE        A1 (1)
  186   183          98.5980971406        2682.9906238034      PI        B2 (3)
  187   131          98.5980971406        2682.9906238034      PI        B1 (2)
  188    73          98.6181241138        2683.5355854497     SG+        A1 (1)
  189   184         103.2905926416        2810.6799179847      PH        B2 (3)
  190   132         103.2905926416        2810.6799179847      PH        B1 (2)
  191    74         103.3070551453        2811.1278854832      DE        A1 (1)
  192   216         103.3070551454        2811.1278854855      DE        A2 (4)
  193   185         103.3511184769        2812.3269096948      PI        B2 (3)
  194   133         103.3511184769        2812.3269096949      PI        B1 (2)
  195    75         103.3544596488        2812.4178276034     SG+        A1 (1)
  196    76         115.0266528630        3130.0343522745      DE        A1 (1)
  197   217         115.0266528630        3130.0343522745      DE        A2 (4)
  198   186         115.2244914321        3135.4178134297      PI        B2 (3)
  199   134         115.2244914321        3135.4178134298      PI        B1 (2)
  200    77         115.5080166548        3143.1329269670     SG+        A1 (1)
  201   135         116.9018534698        3181.0611549377      PI        B1 (2)
  202   187         116.9018534698        3181.0611549383      PI        B2 (3)
  203    78         117.5157357736        3197.7657416693     SG+        A1 (1)
  204    79         122.2065287935        3325.4087089831     SG+        A1 (1)
  205    80         198.5526010476        5402.8909521741      DE        A1 (1)
  206   218         198.5526010476        5402.8909521742      DE        A2 (4)
  207   188         198.6573477501        5405.7412548547      PI        B2 (3)
  208   136         198.6573477501        5405.7412548547      PI        B1 (2)
  209    81         198.9382514580        5413.3850333497     SG+        A1 (1)
  210    82         216.4459781158        5889.7944958974     SG+        A1 (1)
  211   189         224.9106715359        6120.1305139142      PI        B2 (3)
  212   137         224.9106715359        6120.1305139143      PI        B1 (2)
  213    83         225.6974715526        6141.5404308277     SG+        A1 (1)
  214   138         395.3816665733       10758.8821184565      PI        B1 (2)
  215   190         395.3816665733       10758.8821184573      PI        B2 (3)
  216    84         395.9073883483       10773.1877352369     SG+        A1 (1)
  217    85         508.8451011552       13846.3791387447     SG+        A1 (1)
  218    86         895.2786661106       24361.7710333772     SG+        A1 (1)


  VSCF finished.

 @CHECKOUT-I, Total execution time (CPU/WALL):       51.12/      12.03 seconds.
--executable xvscf finished with status     0 in       12.06 seconds (walltime).
 --invoking executable--
/nfs/workspaces/public/cfour_mpi/bin/xvtran
 @GETMEM-I,  Allocated    3814 MB of main memory.
  Full RHF integral transformation
  Transformation of IIII integrals :
  1 pass through the AO integral file was required.
     4497886 AO integrals were read.
     8735016 MO integrals were written to HF2.
  Transformation of IIJJ integrals :
  1 pass through the AO integral file was required.
    10209254 AO integrals were read.
    14507803 MO integrals were written to HF2.
  Transformation of IJIJ integrals :
  1 pass through the AO integral file was required.
    19389719 AO integrals were read.
    27118181 MO integrals were written to HF2.
  Transformation of IJKL integrals :
  1 pass through the AO integral file was required.
    14352738 AO integrals were read.
    18332763 MO integrals were written to HF2.
  Summary of active molecular orbitals: 
------------------------------------------------------------------------
 
  Index      Eigenvalue    Symmetry    Index      Eigenvalue    Symmetry
------------------------------------------------------------------------
     1       -20.6612261        1       110         4.1264107        2
     2       -11.4676917        1       111         4.1692019        2
     3        -1.3614256        1       112         4.7229150        2
     4        -0.7933015        1       113         5.0770179        2
     5        -0.5617295        1       114         5.4836097        2
     6        -0.5448732        2       115         5.9548969        2
     7        -0.5448732        3       116         6.2186746        2
     8         0.0636845        1       117         6.3925609        2
     9         0.0695744        1       118         6.9907320        2
    10         0.1565570        1       119         7.7036938        2
    11         0.2250767        1       120         9.9761423        2
    12         0.2257553        1       121        10.7692631        2
    13         0.2995032        1       122        11.0712597        2
    14         0.3691945        1       123        11.8688592        2
    15         0.4932642        1       124        12.5988970        2
    16         0.5117469        1       125        13.1301733        2
    17         0.5464632        1       126        18.9022737        2
    18         0.7353898        1       127        26.7470481        2
    19         0.7528865        1       128        33.6282370        2
    20         0.8253919        1       129        47.2739723        2
    21         0.8677123        1       130        66.4490784        2
    22         0.8748303        1       131        98.5636064        2
    23         1.1231008        1       132        98.5980971        2
    24         1.4017642        1       133       103.2905926        2
    25         1.5620649        1       134       103.3511185        2
    26         1.6336023        1       135       115.2244914        2
    27         1.7183873        1       136       116.9018535        2
    28         1.8774473        1       137       198.6573478        2
    29         2.0113105        1       138       224.9106715        2
    30         2.0851454        1       139       395.3816666        2
    31         2.1509418        1       140         0.0337306        3
    32         2.2733800        1       141         0.0905550        3
    33         2.3173660        1       142         0.1720233        3
    34         2.4984463        1       143         0.2980079        3
    35         2.6165692        1       144         0.3989163        3
    36         2.7835774        1       145         0.6247580        3
    37         3.2528301        1       146         0.7406930        3
    38         3.7011291        1       147         0.7936381        3
    39         3.9011393        1       148         0.8977497        3
    40         4.2087456        1       149         1.0346952        3
    41         4.2212389        1       150         1.4291575        3
    42         4.2792951        1       151         1.5565892        3
    43         4.4009171        1       152         1.6494716        3
    44         4.8859803        1       153         2.0828287        3
    45         4.9336061        1       154         2.2266078        3
    46         5.3790192        1       155         2.2658287        3
    47         5.8587913        1       156         2.2693430        3
    48         6.1709313        1       157         2.5268602        3
    49         6.1935435        1       158         2.6490035        3
    50         6.3299137        1       159         3.5740355        3
    51         6.5248463        1       160         4.0228021        3
    52         6.5730266        1       161         4.1264107        3
    53         7.2872425        1       162         4.1692019        3
    54         8.2886487        1       163         4.7229150        3
    55         9.7718926        1       164         5.0770179        3
    56        10.6268083        1       165         5.4836097        3
    57        10.7750474        1       166         5.9548969        3
    58        11.0036956        1       167         6.2186746        3
    59        11.3680904        1       168         6.3925609        3
    60        12.0660579        1       169         6.9907320        3
    61        12.7615019        1       170         7.7036938        3
    62        12.8956873        1       171         9.9761423        3
    63        13.9991362        1       172        10.7692631        3
    64        17.5262456        1       173        11.0712597        3
    65        20.3113735        1       174        11.8688592        3
    66        26.3349167        1       175        12.5988970        3
    67        27.2721891        1       176        13.1301733        3
    68        34.3759290        1       177        18.9022737        3
    69        36.0196537        1       178        26.7470481        3
    70        47.0793325        1       179        33.6282370        3
    71        47.8086018        1       180        47.2739723        3
    72        63.9148599        1       181        66.4490784        3
    73        67.4598755        1       182        98.5636064        3
    74        98.5772471        1       183        98.5980971        3
    75        98.6181241        1       184       103.2905926        3
    76       103.3070551        1       185       103.3511185        3
    77       103.3544596        1       186       115.2244914        3
    78       115.0266529        1       187       116.9018535        3
    79       115.5080167        1       188       198.6573478        3
    80       117.5157358        1       189       224.9106715        3
    81       122.2065288        1       190       395.3816666        3
    82       198.5526010        1       191         0.2257553        4
    83       198.9382515        1       192         0.5464632        4
    84       216.4459781        1       193         0.7528865        4
    85       225.6974716        1       194         0.8748303        4
    86       395.9073883        1       195         1.5620649        4
    87       508.8451012        1       196         1.7183873        4
    88       895.2786661        1       197         2.0851454        4
    89         0.0337306        2       198         2.1509418        4
    90         0.0905550        2       199         2.3173660        4
    91         0.1720233        2       200         2.7835774        4
    92         0.2980079        2       201         3.7011291        4
    93         0.3989163        2       202         4.2212389        4
    94         0.6247580        2       203         4.2792951        4
    95         0.7406930        2       204         4.8859803        4
    96         0.7936381        2       205         5.8587913        4
    97         0.8977497        2       206         6.1935435        4
    98         1.0346952        2       207         6.5248463        4
    99         1.4291575        2       208         6.5730266        4
   100         1.5565892        2       209        10.6268083        4
   101         1.6494716        2       210        11.0036956        4
   102         2.0828287        2       211        12.0660579        4
   103         2.2266078        2       212        12.7615019        4
   104         2.2658287        2       213        26.3349167        4
   105         2.2693430        2       214        47.0793325        4
   106         2.5268602        2       215        98.5772471        4
   107         2.6490035        2       216       103.3070551        4
   108         3.5740355        2       217       115.0266529        4
   109         4.0228021        2       218       198.5526010        4
------------------------------------------------------------------------
  -20.6612260506243       -11.4676916592435       -1.36142561222142     
 -0.793301464730626      -0.561729506208416      -0.544873217796969     
 -0.544873217796966       6.368448831047688E-002  6.957438900960369E-002
  0.156556950858094       0.225076679545654       0.225755335892837     
  0.299503202142565       0.369194495452864       0.493264241664715     
  0.511746943924070       0.546463162558625       0.735389814063576     
  0.752886468045813       0.825391879406084       0.867712285641669     
  0.874830310845218        1.12310083019647        1.40176419303777     
   1.56206486918093        1.63360232860906        1.71838727786047     
   1.87744733238334        2.01131048737191        2.08514537755729     
   2.15094183289365        2.27337995238448        2.31736595286829     
   2.49844626627210        2.61656924526173        2.78357739066483     
   3.25283010214689        3.70112908410775        3.90113931195638     
   4.20874558025266        4.22123894283557        4.27929511403767     
   4.40091705083078        4.88598027478701        4.93360608137081     
   5.37901922271398        5.85879130178795        6.17093134596424     
   6.19354353445169        6.32991366817801        6.52484634945678     
   6.57302662436275        7.28724247174116        8.28864872775792     
   9.77189261500200        10.6268082998744        10.7750474393076     
   11.0036955906636        11.3680903887690        12.0660578885137     
   12.7615018514638        12.8956873040329        13.9991362473325     
[...]
 Convergence information after    14 iterations: 
 Largest element of residual vector : -0.10395992E-05.
 Largest element of DIIS residual   : -0.62761873E-06.
 Convergence information after    15 iterations: 
 Largest element of residual vector : -0.44761743E-06.
 Largest element of DIIS residual   : -0.29015836E-06.
 Convergence information after    16 iterations: 
 Largest element of residual vector : -0.26725340E-06.
 Largest element of DIIS residual   : -0.11534782E-06.
 Convergence information after    17 iterations: 
 Largest element of residual vector : -0.66781584E-07.
 Largest element of DIIS residual   :  0.25809309E-07.
 Perturbed amplitude equations converged in    17 iterations.
  Dominant contributions to perturbed wavefunction:
    7    7  140   28   0.2475832090 ABAB
    7    7   28  140   0.2475832090 ABAB
    7    7  140   39  -0.2190461853 ABAB
    7    7   39  140  -0.2190461853 ABAB
    7    7  140   54  -0.1721530470 ABAB
    7    7   54  140  -0.1721530470 ABAB
    7    6   28   89   0.1575480090 ABAB
    6    7   89   28   0.1575480090 ABAB
    7    7  140   21  -0.1471954317 ABAB
    7    7   21  140  -0.1471954317 ABAB
    7    7  140   45   0.1448687635 ABAB
    7    7   45  140   0.1448687635 ABAB
    7    7  140   20  -0.1442913464 ABAB
    7    7   20  140  -0.1442913464 ABAB
    7    6   39   89  -0.1400076161 ABAB
    6    7   89   39  -0.1400076161 ABAB
    7    7  141   28   0.1336238568 ABAB
    7    7   28  141   0.1336238568 ABAB
    7    7  140   24   0.1276703190 ABAB
    7    7   24  140   0.1276703190 ABAB
  norm of converged amps    1.90947698745770     
 Starting iterative solution of the perturbed Lambda equations.
 The DIIS procedure is used to accelerate convergence.
 Convergence criterion is 10**(-7).
 Maximum number of iterations is 100.
 Convergence information after     1 iterations: 
 Largest element of residual vector :  0.62855974E-01.
 Largest element of DIIS residual   :  0.62855974E-01.
 Convergence information after     2 iterations: 
 Largest element of residual vector : -0.13576161E-01.
 Largest element of DIIS residual   : -0.84081838E-02.
 Convergence information after     3 iterations: 
 Largest element of residual vector :  0.56867908E-02.
 Largest element of DIIS residual   :  0.51778156E-02.
 Convergence information after     4 iterations: 
 Largest element of residual vector :  0.35933268E-02.
 Largest element of DIIS residual   :  0.31416992E-02.
 Convergence information after     5 iterations: 
 Largest element of residual vector :  0.26167578E-02.
 Largest element of DIIS residual   :  0.16065460E-02.
 Convergence information after     6 iterations: 
 Largest element of residual vector :  0.10833711E-02.
 Largest element of DIIS residual   :  0.45370004E-03.
 Convergence information after     7 iterations: 
 Largest element of residual vector :  0.44245664E-03.
 Largest element of DIIS residual   : -0.16007030E-03.
 Convergence information after     8 iterations: 
 Largest element of residual vector :  0.10725829E-03.
 Largest element of DIIS residual   :  0.80915718E-04.
 Convergence information after     9 iterations: 
 Largest element of residual vector :  0.49039334E-04.
 Largest element of DIIS residual   :  0.13529269E-04.
 Convergence information after    10 iterations: 
 Largest element of residual vector :  0.11106547E-04.
 Largest element of DIIS residual   : -0.59199337E-05.
 Convergence information after    11 iterations: 
 Largest element of residual vector : -0.34377963E-05.
 Largest element of DIIS residual   : -0.22487808E-05.
 Convergence information after    12 iterations: 
 Largest element of residual vector : -0.21487661E-05.
 Largest element of DIIS residual   : -0.17171823E-05.
 Convergence information after    13 iterations: 
 Largest element of residual vector : -0.12766430E-05.
 Largest element of DIIS residual   : -0.10171224E-05.
 Convergence information after    14 iterations: 
 Largest element of residual vector : -0.95176028E-06.
 Largest element of DIIS residual   : -0.73601847E-06.
 Convergence information after    15 iterations: 
 Largest element of residual vector : -0.51413406E-06.
 Largest element of DIIS residual   : -0.32810696E-06.
 Convergence information after    16 iterations: 
 Largest element of residual vector : -0.29604747E-06.
 Largest element of DIIS residual   : -0.14214957E-06.
 Convergence information after    17 iterations: 
 Largest element of residual vector : -0.88389656E-07.
 Largest element of DIIS residual   : -0.38105845E-07.
 Perturbed Lambda equations converged in    17 iterations.
  Dominant contributions to perturbed wavefunction:
    7    7  140   28   0.2230811604 ABAB
    7    7   28  140   0.2230811604 ABAB
    7    7  140   39  -0.1949269507 ABAB
    7    7   39  140  -0.1949269507 ABAB
    7    7  140   54  -0.1563596879 ABAB
    7    7   54  140  -0.1563596879 ABAB
    7    6   28   89   0.1394544607 ABAB
    6    7   89   28   0.1394544607 ABAB
    7    7  140   21  -0.1319224359 ABAB
    7    7   21  140  -0.1319224359 ABAB
    7    7  140   45   0.1287331720 ABAB
    7    7   45  140   0.1287331720 ABAB
    7    7  140   20  -0.1273370502 ABAB
    7    7   20  140  -0.1273370502 ABAB
    7    6   39   89  -0.1224602420 ABAB
    6    7   89   39  -0.1224602420 ABAB
    7    7  141   28   0.1190409100 ABAB
    7    7   28  141   0.1190409100 ABAB
    7    7  140   57   0.1123238552 ABAB
    7    7   57  140   0.1123238552 ABAB
        The DBOC first-order density matrix is being calculated 
             (Symmetry block 3, perturbation   2)
 term   4.04981540531044     
 final tnorm  0.846709733752631     
  norm contr. I: |<0|L dT/dx|0>|^2   0.000000000000000E+000
  norm contr. II: <0|[nabla(1+L)e-T][nabla e^T]|0>   4.04981540531044     
  total norm contribution   4.04981540531044     
 oo  7.152725699913744E-003
 vv  -26.9692069901815     
 vo  6.464820626714415E-002
  Correlated perturbed 1-el contribution to DBOC  -26.8974060582145       cm**-1
  SUM_I |dc_I/dx|^2 contribution to DBOC   13.5482474406928       cm**-1
 
 
  The total diagonal Born-Oppenheimer correction (DBOC) is:      0.0038679853 a.u.
  The total diagonal Born-Oppenheimer correction (DBOC) is:        848.924647 cm-1
 
 Total CC energy including DBOC  -113.184277751516     
 First-order density matrix is being calculated  (Symmetry block 3, perturbation   2)
 Calculation of the contributions of <pq||rs> to dI(i,j)/dx required   2.9 seconds.
 Calculation of the contributions of <pq||rs> to dI(a,b)/dx required  15.8 seconds.
 Calculation of the contributions of <pq||rs> to dI(i,a)/dx required   9.4 seconds.
 First-order Z-vector equations are solved for 1 perturbation.
 Convergence reached after  20 iterations.
        U*G(pq,rs) contribution is being calculated
             (Symmetry block 3, perturbation   2)

 CCSD contribution to force constants 

        0.0000000000        0.0000000000        0.0000000000
        0.0000000000        0.0000000000        0.0000000000
        0.0000000000        0.0000000000        0.0000000000
        0.0000000000        0.0000000000        0.0000000000
        0.0000000000        0.0000000000        0.0000000000
        0.0000000000        0.0000000000        0.0000000000
        0.0000000000        0.0000000000        0.0000000000
        0.0000000000        0.0000000000        0.0000000000
        0.0000000000        0.0000000000        0.0000000000
        0.0000000000        0.0000000000        0.0000000000
        0.0000000000        0.0000000000        0.0000000000
        0.0000000000        0.2595533640       -0.2595533640

 CCSD contribution to dipole derivatives 

        0.0000000000        0.0000000000        0.0000000000
        0.0000000000        0.0000000000        0.0000000000
        0.0000000000        0.0000000000        0.0000000000
        0.0000000000        0.0000000000       -0.0542958040
        0.0000000000        0.0000000000        0.0000000000
        0.0000000000        0.0000000000        0.0000000000
 @CHECKOUT-I, Total execution time (CPU/WALL):     1257.36/     451.19 seconds.
--executable xsdcc finished with status     0 in      451.40 seconds (walltime).
 --invoking executable--
/nfs/workspaces/public/cfour_mpi/bin/xanti
 @GETMEM-I,  Allocated    3814 MB of main memory.
 CCSD MO derivative gammas will be sorted to Mulliken order.
 @CHECKOUT-I, Total execution time (CPU/WALL):       12.30/      27.11 seconds.
--executable xanti finished with status     0 in       27.27 seconds (walltime).
 --invoking executable--
/nfs/workspaces/public/cfour_mpi/bin/xbcktrn
 @GETMEM-I,  Allocated    3814 MB of main memory.
 CCSD MO derivative gammas will be transformed to the AO basis.
 @CHECKOUT-I, Total execution time (CPU/WALL):       26.15/       4.24 seconds.
--executable xbcktrn finished with status     0 in        4.30 seconds (walltime).
 --invoking executable--
/nfs/workspaces/public/cfour_mpi/bin/xvdint
 @GETMEM-I,  Allocated    3814 MB of main memory.
 One- and two-electron integral derivatives are calculated
 for RHF-CC/MBPT hessians and dipole derivatives.
 Spherical gaussians are used.
  magnet F F
                    8722  records have been written to the Sort file.
  Total length of Sort file :             178609116  words.
 Evaluation of 2el integral derivatives

                      Two-electron integral gradient
                      ------------------------------

                         C #1 z     0.0000000000
                         O #2 z     0.0000000000


 C #1       0.0000000000           -0.0633562905            0.0000000000
 O #2       0.0000000000            0.0633562905            0.0000000000


 Evaluation of 2e integral derivatives required  347.82 seconds.
  contribution to Hessian
        0.0000000000        0.0000000000        0.0000000000
        0.0000000000       -0.0633562905        0.0633562905
 @CHECKOUT-I, Total execution time (CPU/WALL):      347.81/      71.38 seconds.
--executable xvdint finished with status     0 in       71.55 seconds (walltime).
 --invoking executable--
/nfs/workspaces/public/cfour_mpi/bin/xanti
 @GETMEM-I,  Allocated    3814 MB of main memory.
 CCSD MO gammas will be sorted to Mulliken order.
 @CHECKOUT-I, Total execution time (CPU/WALL):       16.26/      50.48 seconds.
--executable xanti finished with status     0 in       50.64 seconds (walltime).
 --invoking executable--
/nfs/workspaces/public/cfour_mpi/bin/xbcktrn
 @GETMEM-I,  Allocated    3814 MB of main memory.
 CCSD MO gammas will be transformed to the AO basis.
 @CHECKOUT-I, Total execution time (CPU/WALL):       32.24/      12.48 seconds.
--executable xbcktrn finished with status     0 in       12.54 seconds (walltime).
 --invoking executable--
/nfs/workspaces/public/cfour_mpi/bin/xvdint
 @GETMEM-I,  Allocated    3814 MB of main memory.
 One- and two-electron integral derivatives are calculated
 for RHF-CC/MBPT hessians and dipole derivatives.
 Spherical gaussians are used.
  magnet F F

                     Kinetic energy integral gradient
                     --------------------------------

                         C #1 z    -0.8270069720
                         O #2 z     0.8270069720


 C #1       0.0000000000            0.0000000000           -0.8270069720
 O #2       0.0000000000            0.0000000000            0.8270069720



                   Nuclear attraction integral gradient
                   ------------------------------------

                         C #1 z    17.1906570858
                         O #2 z   -17.1906570858


 C #1       0.0000000000            0.0000000000           17.1906570858
 O #2       0.0000000000            0.0000000000          -17.1906570858



                      Reorthonormalization gradient
                      -----------------------------

                         C #1 z     0.0000000000
                         O #2 z     0.0000000000


 C #1       0.0000000000            0.0000000000            0.0000000000
 O #2       0.0000000000            0.0000000000            0.0000000000



                     Kinetic energy integral Hessian
                     -------------------------------


           Symmetry 1

           C #1 z      O #2 z

 C #1 z    0.826303
 O #2 z   -0.826303    0.826303


           Symmetry 2

           C #1 x      O #2 x

 C #1 x   -0.775860
 O #2 x    0.775860   -0.775860


           Symmetry 3

           C #1 y      O #2 y

 C #1 y   -0.775860
 O #2 y    0.775860   -0.775860




           C #1 x      C #1 y      C #1 z      O #2 x      O #2 y      O #2 z

 C #1 x   -0.775860
 C #1 y    0.000000   -0.775860
 C #1 z    0.000000    0.000000    0.826303

 O #2 x    0.775860    0.000000    0.000000   -0.775860
 O #2 y    0.000000    0.775860    0.000000    0.000000   -0.775860
 O #2 z    0.000000    0.000000   -0.826303    0.000000    0.000000    0.826303




                   Nuclear attraction integral Hessian
                   -----------------------------------


           Symmetry 1

           C #1 z      O #2 z

 C #1 z  -10.649311
 O #2 z   10.649311  -10.649311


           Symmetry 2

           C #1 x      O #2 x

 C #1 x   11.172992
 O #2 x  -11.172992   11.172992


           Symmetry 3

           C #1 y      O #2 y

 C #1 y   11.172992
 O #2 y  -11.172992   11.172992




           C #1 x      C #1 y      C #1 z      O #2 x      O #2 y      O #2 z

 C #1 x   11.172992
 C #1 y    0.000000   11.172992
 C #1 z    0.000000    0.000000  -10.649311

 O #2 x  -11.172992    0.000000    0.000000   11.172992
 O #2 y    0.000000  -11.172992    0.000000    0.000000   11.172992
 O #2 z    0.000000    0.000000   10.649311    0.000000    0.000000  -10.649311




                Highest order reorthonormalization Hessian
                ------------------------------------------


           Symmetry 1

           C #1 z      O #2 z

 C #1 z    0.000000
 O #2 z    0.000000    0.000000


           Symmetry 2

           C #1 x      O #2 x

 C #1 x    0.000000
 O #2 x    0.000000    0.000000


           Symmetry 3

           C #1 y      O #2 y

 C #1 y    0.000000
 O #2 y    0.000000    0.000000




           C #1 x      C #1 y      C #1 z      O #2 x      O #2 y      O #2 z




                Electronic contributions to dipole moment
                -----------------------------------------

                               au             Debye

                    z     -0.77300518     -1.96478352

  Conversion factor used: 1 a.u. =   2.54174691 Debye 



   Electronic contributions to static part of dipole moment derivatives
   --------------------------------------------------------------------


                     Total dipole moment derivatives
                     -------------------------------


           Symmetry 1
                              Ez

               C #1 z    -5.61604672
               O #2 z    -8.38395328

           Symmetry 2
                              Ex

               C #1 x    -5.67970216
               O #2 x    -8.32029784

           Symmetry 3
                              Ey

               C #1 y    -5.67970216
               O #2 y    -8.32029784



                       Ex          Ey          Ez

      C #1    x   -5.679702    0.000000    0.000000
      C #1    y    0.000000   -5.679702    0.000000
      C #1    z    0.000000    0.000000   -5.616047

      O #2    x   -8.320298    0.000000    0.000000
      O #2    y    0.000000   -8.320298    0.000000
      O #2    z    0.000000    0.000000   -8.383953

 Evaluation of 1e integral derivatives required    1.69 seconds.
                    8815  records have been written to the Sort file.
  Total length of Sort file :             180513570  words.
 Evaluation of 2el integral derivatives

                      Two-electron integral gradient
                      ------------------------------

                         C #1 z    -8.8015267502
                         O #2 z     8.8015267502


 C #1       0.0000000000            0.0000000000           -8.8015267502
 O #2       0.0000000000            0.0000000000            8.8015267502


 Evaluation of 2e integral derivatives required  713.34 seconds.

                            Molecular gradient
                            ------------------

                         C #1 z     0.6703772403
                         O #2 z    -0.6703772403


 C #1       0.0000000000            0.0000000000            0.6703772403
 O #2       0.0000000000            0.0000000000           -0.6703772403


  Molecular gradient norm 0.948E+00

                            Molecular hessian
                            -----------------


           Symmetry 1

           C #1 z      O #2 z

 C #1 z   31.052824
 O #2 z  -31.052824   31.052824


           Symmetry 2

           C #1 x      O #2 x

 C #1 x    0.090357
 O #2 x   -0.090357    0.090357


           Symmetry 3

           C #1 y      O #2 y

 C #1 y    0.090357
 O #2 y   -0.090357    0.090357




           C #1 x      C #1 y      C #1 z      O #2 x      O #2 y      O #2 z

 C #1 x    0.090357
 C #1 y    0.000000    0.090357
 C #1 z    0.000000    0.000000   31.052824

 O #2 x   -0.090357    0.000000    0.000000    0.090357
 O #2 y    0.000000   -0.090357    0.000000    0.000000    0.090357
 O #2 z    0.000000    0.000000  -31.052824    0.000000    0.000000   31.052824




                           Total dipole moment
                           -------------------

                               au             Debye

                    z      0.28222148      0.71733558

  Conversion factor used: 1 a.u. =   2.54174691 Debye 



                     Total dipole moment derivatives
                     -------------------------------


           Symmetry 1
                              Ez

               C #1 z     0.67350803
               O #2 z    -0.67350803

           Symmetry 2
                              Ex

               C #1 x     0.10824549
               O #2 x    -0.10824549

           Symmetry 3
                              Ey

               C #1 y     0.10824549
               O #2 y    -0.10824549



                       Ex          Ey          Ez

      C #1    x    0.108245    0.000000    0.000000
      C #1    y    0.000000    0.108245    0.000000
      C #1    z    0.000000    0.000000    0.673508

      O #2    x   -0.108245    0.000000    0.000000
      O #2    y    0.000000   -0.108245    0.000000
      O #2    z    0.000000    0.000000   -0.673508

 @CHECKOUT-I, Total execution time (CPU/WALL):      715.02/     120.80 seconds.
--executable xvdint finished with status     0 in      120.99 seconds (walltime).
 --invoking executable--
/nfs/workspaces/public/cfour_mpi/bin/xjoda
  @GTFLGS-I, Hessian will be transformed to curvilinear coordinates.
  @GTFLGS-I, Hessian will be transformed to curvilinear coordinates.
  igrd and ihes are                      0                     1
  gradient from JOBARC 
   0.000000000000000   0.000000000000000   0.670377240262186
   0.000000000000000   0.000000000000000  -0.670377240262186
 
  @PROJFCM-I, Projecting force constant matrix onto totally symmetric subspace.
  Largest difference between matrix elements of symmetrized
  and unsymmetrized FCM :    -0.5196787445E-11.
  read isotopes from ZMAT file 
 
  Summary of diagonal Born-Oppenheimer correction at the correlated level
  The total diagonal Born-Oppenheimer correction (DBOC) is:      0.0038679853 a.u.
  The total diagonal Born-Oppenheimer correction (DBOC) is:        848.924647 cm-1
  The total diagonal Born-Oppenheimer correction (DBOC) is:            10.155 kJ/mole
  hellooooooo 
  readis is  F
 
 @CHECKOUT-I, Total execution time (CPU/WALL):        0.01/       0.08 seconds.
--executable xjoda finished with status     0 in        0.13 seconds (walltime).
  The final electronic energy is      -113.184277751516433 a.u. 
  This computation required                         4383.42 seconds (walltime).
