 --invoking executable--
/nfs/workspaces/public/cfour_mpi/bin/xjoda


   *************************************************************************
         <<<     CCCCCC     CCCCCC   |||     CCCCCC     CCCCCC   >>>
       <<<      CCC        CCC       |||    CCC        CCC         >>>
      <<<      CCC        CCC        |||   CCC        CCC            >>>
    <<<        CCC        CCC        |||   CCC        CCC              >>>
      <<<      CCC        CCC        |||   CCC        CCC            >>>
       <<<      CCC        CCC       |||    CCC        CCC         >>>
         <<<     CCCCCC     CCCCCC   |||     CCCCCC     CCCCCC   >>>
   *************************************************************************

     ****************************************************************
     * CFOUR Coupled-Cluster techniques for Computational Chemistry *
     ****************************************************************
 

   Department of Chemistry                Institut fuer Physikalische Chemie
   University of Florida                  Universitaet Mainz
   Gainesville, FL 32611, USA             D-55099 Mainz, Germany

   Department of Chemistry                Fakultaet fuer Chemie und Biowiss.
   Johns Hopkins University               Karlsruher Institut fuer Technologie
   Baltimore, MD 21218, USA               D-76131 Karlsruhe, Germany

   Department of Chemistry                Department of Physical Chemistry
   Southern Methodist University          Eotvos Lorand University
   Dallas, TX 75275, USA                  H-1053 Budapest, Hungary

 
                       Version 2.1
 
                     vincent.theory.phys.ucl.ac.uk                     
                     Sun  2 Mar 05:58:50 GMT 2025                      
                     integer*8 version is running
 
********************************************************************************
*                          Input from ZMAT file                                *
********************************************************************************
Carbon Monoxide DBOC calculation                                                
C                                                                               
O 1 r                                                                           
                                                                                
r=1.2413793103448276                                                            
                                                                                
                                                                                
*CFOUR(CALC=CCSD,BASIS=AUG-PCVQZ,SCF_CONV=10                                    
CC_CONV=14,DBOC=ON,MEMORY=500000000                                             
ZFIELD=200)                                                                     
                                                                                
%isotopes                                                                       
12                                                                              
18                                                                              
********************************************************************************
  @GTFLGS-I, Hessian will be transformed to curvilinear coordinates.
    -------------------------------------------------------------------
                    CFOUR Control Parameters 
    -------------------------------------------------------------------
        External           Internal           Value            Units
          Name               Name
    -------------------------------------------------------------------
       ABCDTYPE             IABCDT         STANDARD    [  0]    ***   
       ANHARMONIC           IANHAR         OFF         [  0]    ***   
       ANH_ALGORIT          IANALG         STANDARD    [  0]    ***   
       ANH_DERIVAT          IANDER         SECOND      [  1]    ***   
       ANH_MODE             ANHMOD         VIBRATION   [  0]    ***   
       ANH_STEPSIZ          ICUBST             50000          x 10-6  
       ANH_SYMMETR          IANHSM         ABELIAN     [  0]    ***   
       AO_LADDERS           IAOLAD         SINGLEPASS  [  1]    ***   
       AV_SCF               IAVSCF         OFF         [  0]    ***   
       BASIS                IBASIS         AUG-PCVQZ   [ 52]    ***   
       BOTHVECTORS          BOTHVC         OFF         [  0]    ***   
       BOX_POTENT           IPIAB          OFF         [  0]    ***   
       BREIT                IBREIT         OFF         [  0]    ***   
       BRUCK_CONV           IBRTOL          10D-  4             ***   
       BRUECKNER            IBRKNR         OFF         [  0]    ***   
       BUFFERSIZE           IBUFFS              4096            ***   
       CACHE_RECS           ICHREC             10               ***   
       CALCLEVEL            ICLLVL         CCSD        [ 10]    ***   
       CCORBOPT             ICCORB         OFF         [  0]  x 0.01  
       CC_CONV              ICCCNV          10D- 14             ***   
       CC_EXPORDER          ICCEOR              5               ***   
       CC_EXTRAPOL          ICCEXT         DIIS        [  1]    ***   
       CC_GUESS             ICCGES         MP2         [  0]    ***   
       CC_MAXCYC            ICCCYC            100              cycles 
       CC_PROGRAM           ICCPRO         VCC         [  0]    ***   
       CHARGE               ICHRGE              0               ***   
       CHOLESKY             ICHOLE         OFF         [  0]    ***   
       CIS_CONV             ICISTL              5               ***   
       COMM_SIZE            IPSIZE            ***               ***   
       CONSTANT             ICONST         OLD         [  1]    ***   
       CONTINUUM            ICONTU         NONE        [  0]    ***   
       CONTRACTION          ICNTYP         GENERAL     [  1]    ***   
       COORDINATES          ICOORD         INTERNAL    [  0]    ***   
       CPHF_CONVER          ICPHFT          10D- 16             ***   
       CPHF_MAXCYC          ICPHFC             64              cycles 
       CUBIC                ICUBIC         OFF         [  0]    ***   
       CURVILINEAR          ICURVY         ON          [  1]    ***   
       DBOC                 IDBOC          ON          [  1]    ***   
       DCT                  IDCT           OFF         [  0]    ***   
       DERIV_LEV            IDRLVL         SECOND      [  2]    ***   
       DEVMEM_SIZE          IDVMEM          50000000           MByte  
       DIAG_MRCC            IEOMST          10D-  0             ***   
       DIFF_TYPE            IDIFTY         RELAXED     [  0]    ***   
       DIRECT               IDIRCT         OFF         [  0]    ***   
       DROPMO               IDRPMO      NONE         
       ECP                  IECP           OFF         [  0]    ***   
       EIGENVECTOR          IVEC                1               ***   
       EL_ANHARM            IELANH         OFF         [  0]    ***   
       EOMFOLLOW            IEOMSR         ENERGY      [  0]    ***   
       EOMIP                IEOMIP         OFF         [  0]    ***   
       EOMLEVEL             HBARFM         SAME        [  0]    ***   
       EOM_MRCC             IMRCCE         NEW         [  1]    ***   
       EOM_NONIT            EOMNON         OFF         [  0]    ***   
       EOM_NSING            IEOMSI          10D-  0             ***   
       EOM_NSTATES          IMRCCD         DAVIDSON    [  0]    ***   
       EOM_NTRIP            IEOMTR          10D-  0             ***   
       EOM_ORDER            IEXORD         ENERGY      [  0]    ***   
       EOM_PROPSTA          IEOMST              0               ***   
       ESTATE_CONV          IEXTOL          10D-  5             ***   
       ESTATE_DIAG          IEXDIG         ITERATIVE   [  0]    ***   
       ESTATE_LOCK          IESLOC         ON          [  1]    ***   
       ESTATE_MAXC          IEXMXC             40               ***   
       ESTATE_PROP          IEXPRP         OFF         [  0]    ***   
       EVAL_HESS            IRECAL              0            # of cyc.
       EXCITATION           IEXCIT              0               ***   
       EXCITE               IEXCIT         NONE        [  0]    ***   
       EXTERN_POT           IEXPOT         OFF         [  0]    ***   
       FCGRADNEW            IFCGNW         OFF         [  0]    ***   
       FC_FIELD             IFINFC              0             x 10-6  
       FD_CALTYPE           IFDCAL         GRADONLY    [  0]    ***   
       FD_PROJECT           IFDPRJ         OFF         [  1]    ***   
       FD_STEPSIZE          IDISFD              0            10-4 bohr
       FD_USEGROUP          IFDGRP         FULL        [  0]    ***   
       FILE_RECSIZ          IFLREC              4096           words  
       FINITE_PERT          IFIPER              0             x 10-6  
       FIXGEOM              IFIXGM         OFF         [  0]    ***   
       FOCK                 IFOCK          AO          [  1]    ***   
       FREQ_ALGORI          IVIALG         STANDARD    [  0]    ***   
       FROZEN_CORE          IFROCO         OFF         [  0]    ***   
       GAMMA_ABCD           IGABCD         STORE       [  0]    ***   
       GAMMA_ABCI           IGABCI         STORE       [  0]    ***   
       GENBAS_1             IGNBS1              0               ***   
       GENBAS_2             IGNBS2              0               ***   
       GENBAS_3             IGNBS3              0               ***   
       GENBAS_4             IGNBS4              0               ***   
       GEO_CONV             ICONTL              5              H/bohr 
       GEO_MAXCYC           IOPTCY             50               ***   
       GEO_MAXSTEP          IMXSTP            300            millibohr
       GEO_METHOD           INR            SINGLE_POINT[  5]    ***   
       GIAO                 IGIAO          OFF         [  1]    ***   
       GIMIC                IGIMIC         OFF         [  0]    ***   
       GRID                 IGRID          OFF         [  0]    ***   
       GRID_ALGO            IGALGO         SERIAL      [  0]    ***   
       GUESS                IGUESS         MOREAD      [  0]    ***   
       HBAR                 IHBAR          OFF         [  0]    ***   
       HESS_TYPE            IHESTP         SCF         [  0]    ***   
       HF2_FILE             IHF2Fl         USE         [  1]    ***   
       HFSTABILITY          ISTABL         OFF         [  0]    ***   
       INCORE               INCORE         OFF         [  0]    ***   
       INPUT_MRCC           IMRCC          ON          [  1]    ***   
       INTEGRALS            INTTYP         VMOL        [  1]    ***   
       JODA_PRINT           IJPRNT              0               ***   
       KEYWORD_OUT          IDMPKW         NO          [  0]    ***   
       LINDEP_TOL           ILINDP              8               ***   
       LINEQ_CONV           IZTACN          10D-  7           cycles  
       LINEQ_EXPOR          ILMAXD              5               ***   
       LINEQ_MAXCY          ILMAXC            100               ***   
       LINEQ_TYPE           ILTYPE         DIIS        [  1]    ***   
       LOCK_ORBOCC          ILOCOC         OFF         [  0]    ***   
       MEMORY_SIZE          IMEMSZ         500000000           words  
       MEM_UNIT             IMEMU          INTEGERWORDS[  0]    ***   
       MRCC                 IMRCCC         OFF         [  0]    ***   
       MULTIPLICTY          IMULTP              1               ***   
       NACOUPLING           IVCOUP         OFF         [  0]    ***   
       NEGEVAL              IDIE           ABORT       [  0]    ***   
       NEWNORM              INEWNO         OFF         [  0]    ***   
       NON-HF               INONHF         OFF         [  0]    ***   
       NTOP_TAMP            ITOPT2             15               ***   
       NUC_MODEL            INUCMO         POINT       [  0]    ***   
       OCCUPATION           IOCCU   ESTIMATED BY SCF 
       OPEN-SHELL           IOPEN          SPIN-ORBITAL[  0]    ***   
       OPTVIB               IOPTVB         OFF         [  0]    ***   
       ORBITALS             IORBTP         STANDARD    [  0]    ***   
       PARALLEL             IPARAL         ON          [  1]    ***   
       PARA_INT             IPINTS         ON          [  1]    ***   
       PARA_PRINT           IPPRIN              0               ***   
       PERT_ORB             IPTORB         STANDARD    [  0]    ***   
       POINTS               IGRDFD              0               ***   
       PRINT                IPRNT               0               ***   
       PROPS                IPROPS         OFF         [  0]    ***   
       PROP_INTEGR          IINTYP         INTERNAL    [  0]    ***   
       PSI                  IPSI           OFF         [  0]    ***   
       QC_ALG               IQCALG         FLM         [  0]    ***   
       QC_LINALG            IQCLIN         TRIDIAG     [  2]    ***   
       QC_MAXCYC            IQCMAX          10D-100           cycles  
       QC_MAXSCFCY          IQCMSC          10D- 15           cycles  
       QC_RTRUST            IQCRTR          10D-  0           x 10-3  
       QC_SKIPSCF           IQCSKI         OFF         [  0]    ***   
       QC_START             IQCSTA          10D-  1             ***   
       QRHFGUESS            IQGUES         OFF         [  0]    ***   
       QUARTIC              IQUART         OFF         [  0]    ***   
       RAMAN_INT            IRAMIN         OFF         [  0]    ***   
       RAMAN_ORB            IRAMRE         UNRELAXED   [  0]    ***   
       RDO                  IRDOFM         ON          [  1]    ***   
       REDUCE_REPR          REDREP         Ir          [  0]    ***   
       REFERENCE            IREFNC         RHF         [  0]    ***   
       RELATIVIST           IRELAT         OFF         [  0]    ***   
       RELAX_DENS           IRDENS         ON          [  1]    ***   
       RESET_FLAGS          IRESET         OFF         [  0]    ***   
       RESTART_CC           ICCRES         OFF         [  0]    ***   
       ROT_EVEC             ROTVEC              0               ***   
       SAVE_INTS            ISVINT         OFF         [  0]    ***   
       SCALE_ON             ISTCRT              0               ***   
       SCF_CONV             ISCFCV          10D- 10             ***   
       SCF_DAMPING          IDAMP               0             x 10-3  
       SCF_EXPORDE          IRPPOR              6               ***   
       SCF_EXPSTAR          IRPPLS              8               ***   
       SCF_EXTRAPO          IRPP           ON          [  1]    ***   
       SCF_MAXCYC           ISCFCY            150              cycles 
       SCF_NOSTOP           ISCFST         OFF         [  0]    ***   
       SCF_PRINT            ISCFPR              0               ***   
       SCF_PROG             ISCFPR         SCF         [  0]    ***   
       SD_FIELD             IFINSD              0             x 10-6  
       SOPERT               IPERSO         OFF         [  0]    ***   
       SPHERICAL            IDFGHI         ON          [  1]    ***   
       SPINORBIT            ISOCAL         OFF         [  0]    ***   
       SPINROTATIO          ISRCON         OFF         [  0]    ***   
       SPIN_FLIP            ISPFLP         OFF         [  0]    ***   
       SPIN_ORBIT           ISPORB         OFF         [  0]    ***   
       SPIN_SCAL            ISCSMP         OFF         [  0]    ***   
       STEEPSCALE           ISTPSC              1000          x 10-3  
       SUBGROUP             ISUBGP         DEFAULT     [  0]    ***   
       SUBGRPAXIS           ISBXYZ         X           [  0]    ***   
       SYMMETRY             ISYM           ON          [  0]    ***   
       SYM_CHECK            ISYMCK         OVERRIDE    [  1]    ***   
       T3_EXTRAPOL          IT3EXT         OFF         [  0]    ***   
       T4_EXTRAPOL          IT4EXP         OFF         [  0]    ***   
       TAMP_SUM             IEVERY              5               ***   
       TESTSUITE            ITESTS         OFF         [  0]    ***   
       THERMOCH             ITHERM         OFF         [  0]    ***   
       TOL_CHOLESK          ITOLCH          10D-  4             ***   
       TRANGRAD             IRESRM         OFF         [  0]    ***   
       TRANS_INV            ITRAIN         IGNORE      [  1]    ***   
       TREAT_PERT           ITREAT         SIMULTANEOUS[  0]    ***   
       TRIP_ALGORI          ITRALG         NORMAL      [  0]    ***   
       UIJ_THRESHO          IUIJTH              1               ***   
       UNITS                IUNITS         ANGSTROM    [  0]    ***   
       UNOS                 IUNOS          OFF         [  0]    ***   
       UPDATE_HESS          IHUPDT         ON          [  1]    ***   
       VIBPHASE             ISETPH         STANDARD    [  0]    ***   
       VIBRATION            IVIB           ANALYTIC    [  1]    ***   
       VIB_ALGORIT          IGEALG         STANDARD    [  0]    ***   
       VNATORB              IVNORB         OFF         [  0]    ***   
       VTRAN                IVTRAN         FULL/PARTIAL[  0]    ***   
       XFIELD               IXEFLD              0             x 10-6  
       XFORM_TOL            IXFTOL          10D- 11             ***   
       YFIELD               IYEFLD              0             x 10-6  
       ZFIELD               IZEFLD            200             x 10-6  
       ZSCALE_EXP           IZEXPS         OFF         [  0]    ***   
    -------------------------------------------------------------------
   2 entries found in Z-matrix 
   Job Title : Carbon Monoxide DBOC calculation                                                
   There are  1 unique internal coordinates.
   Of these,  0 will be optimized.
   User supplied Z-matrix: 
--------------------------------------------------------------------------------
       SYMBOL    BOND      LENGTH    ANGLE     ANGLE     DIHED     ANGLE
                  TO      (ANGST)    WRT      (DEG)      WRT      (DEG)
--------------------------------------------------------------------------------
        C    
        O          1         r    
                  *Initial values for internal coordinates* 
                      Name             Value
                        r               1.2413793103
--------------------------------------------------------------------------------
  read isotopes from ZMAT file 
   Rotational constants (in cm-1): 
          1.5193686364             1.5193686364
   Rotational constants (in MHz): 
      45549.5321933989         45549.5321933989
********************************************************************************
   The full molecular point group is CXv .
   The largest Abelian subgroup of the full molecular point group is C2v .
   The computational point group is C2v .
********************************************************************************
--------------------------------------------------------------------------------
   Analysis of internal coordinates specified by Z-matrix 
--------------------------------------------------------------------------------
   *The nuclear repulsion energy is   20.461514533333329 a.u.
   *There is   1 degree of freedom within the tot. symm. molecular subspace.
   *Z-matrix requests optimization of   0 coordinates.
   *The optimization is constrained.
   *The following   1 parameters can have non-zero 
    derivatives within the totally symmetric subspace:
             r    [ 1]
   *The following   0 parameters are to be optimized:

   *The following coordinates must be varied in an  unconstrained optimization.
             r    [ 1]
--------------------------------------------------------------------------------


 ----------------------------------------------------------------
         Coordinates used in calculation (QCOMP) 
 ----------------------------------------------------------------
 Z-matrix   Atomic            Coordinates (in bohr)
  Symbol    Number           X              Y              Z
 ----------------------------------------------------------------
     C         6        -0.00000000     0.00000000     1.40749418
     O         8         0.00000000     0.00000000    -0.93837323
 ----------------------------------------------------------------
 
   Interatomic distance matrix (Angstroms) 
 
                 C             O    
                [ 1]        [ 2]
  C    [ 1]     0.00000
  O    [ 2]     1.24138     0.00000
 rotcon2
   Rotational constants (in cm-1): 
          1.5193686364             0.0000000000
   Rotational constants (in MHz): 
      45549.5321933989             0.0000000000
  ECPDATA file not present.   Using default ECPDATA. 
  @GTFLGS-I, Hessian will be transformed to curvilinear coordinates.
  There are  218 basis functions.
 @CHECKOUT-I, Total execution time (CPU/WALL):        0.14/       0.26 seconds.
--executable xjoda finished with status     0 in        0.30 seconds (walltime).
 --invoking executable--
/nfs/workspaces/public/cfour_mpi/bin/xvmol
 SERIAL VERSION OF MOLECULE STARTED
********************************************************************************
                    INPUT FROM MOL FILE
********************************************************************************
INTGRL        1    0    1    0    0    0    0    0    0                         
         *** CFOUR Program System (Release V0.1) ***                            
Carbon Monoxide DBOC calculation                                                
    2    2 X  Y       0.10E-08              0    0                              
   9999.00      3.00                                                            
          6.00000000    1    5    1    1    1    1    1                         
C #1  -0.000000000000000   0.000000000000000   1.407494177913422                
   16    9                                                                      
   33980.0000000000       9.100000000000000E-005 -1.900000000000000E-005        
  0.000000000000000E+000  0.000000000000000E+000  0.000000000000000E+000        
  0.000000000000000E+000  0.000000000000000E+000  0.000000000000000E+000        
  0.000000000000000E+000                                                        
   5089.00000000000       7.040000000000000E-004 -1.510000000000000E-004        
  0.000000000000000E+000  0.000000000000000E+000  0.000000000000000E+000        
  0.000000000000000E+000  0.000000000000000E+000  0.000000000000000E+000        
  0.000000000000000E+000                                                        
   1157.00000000000       3.693000000000000E-003 -7.850000000000000E-004        
  0.000000000000000E+000  0.000000000000000E+000  0.000000000000000E+000        
  0.000000000000000E+000  0.000000000000000E+000  0.000000000000000E+000        
  0.000000000000000E+000                                                        
   326.600000000000       1.536000000000000E-002 -3.324000000000000E-003        
  0.000000000000000E+000  0.000000000000000E+000  0.000000000000000E+000        
  0.000000000000000E+000  0.000000000000000E+000  0.000000000000000E+000        
  0.000000000000000E+000                                                        
   106.100000000000       5.292900000000000E-002 -1.151200000000000E-002        
  0.000000000000000E+000  0.000000000000000E+000  0.000000000000000E+000        
  0.000000000000000E+000  0.000000000000000E+000  0.000000000000000E+000        
  0.000000000000000E+000                                                        
   38.1100000000000       0.147043000000000      -3.416000000000000E-002        
  0.000000000000000E+000  0.000000000000000E+000  0.000000000000000E+000        
  0.000000000000000E+000  0.000000000000000E+000  0.000000000000000E+000        
  0.000000000000000E+000                                                        
   14.7500000000000       0.305631000000000      -7.717300000000001E-002        
  0.000000000000000E+000  0.000000000000000E+000  0.000000000000000E+000        
  0.000000000000000E+000  0.000000000000000E+000  0.000000000000000E+000        
  0.000000000000000E+000                                                        
   6.03500000000000       0.399345000000000      -0.141493000000000             
  0.000000000000000E+000  0.000000000000000E+000  0.000000000000000E+000        
  0.000000000000000E+000  0.000000000000000E+000  0.000000000000000E+000        
  0.000000000000000E+000                                                        
   2.53000000000000       0.217051000000000      -0.118019000000000             
  0.000000000000000E+000  0.000000000000000E+000  0.000000000000000E+000        
  0.000000000000000E+000  0.000000000000000E+000  0.000000000000000E+000        
  0.000000000000000E+000                                                        
  0.735500000000000       1.589400000000000E-002  0.273806000000000             
   1.00000000000000       0.000000000000000E+000  0.000000000000000E+000        
  0.000000000000000E+000  0.000000000000000E+000  0.000000000000000E+000        
  0.000000000000000E+000                                                        
  0.290500000000000      -3.084000000000000E-003  0.586510000000000             
  0.000000000000000E+000   1.00000000000000       0.000000000000000E+000        
  0.000000000000000E+000  0.000000000000000E+000  0.000000000000000E+000        
  0.000000000000000E+000                                                        
  0.111100000000000       9.779999999999999E-004  0.285430000000000             
  0.000000000000000E+000  0.000000000000000E+000   1.00000000000000             
  0.000000000000000E+000  0.000000000000000E+000  0.000000000000000E+000        
  0.000000000000000E+000                                                        
   7.21600000000000       0.000000000000000E+000  0.000000000000000E+000        
  0.000000000000000E+000  0.000000000000000E+000  0.000000000000000E+000        
   1.00000000000000       0.000000000000000E+000  0.000000000000000E+000        
  0.000000000000000E+000                                                        
   19.5700000000000       0.000000000000000E+000  0.000000000000000E+000        
  0.000000000000000E+000  0.000000000000000E+000  0.000000000000000E+000        
  0.000000000000000E+000   1.00000000000000       0.000000000000000E+000        
  0.000000000000000E+000                                                        
   53.0730000000000       0.000000000000000E+000  0.000000000000000E+000        
  0.000000000000000E+000  0.000000000000000E+000  0.000000000000000E+000        
  0.000000000000000E+000  0.000000000000000E+000   1.00000000000000             
  0.000000000000000E+000                                                        
  4.145000000000000E-002  0.000000000000000E+000  0.000000000000000E+000        
  0.000000000000000E+000  0.000000000000000E+000  0.000000000000000E+000        
  0.000000000000000E+000  0.000000000000000E+000  0.000000000000000E+000        
   1.00000000000000                                                             
   10    8                                                                      
   34.5100000000000       5.378000000000000E-003  0.000000000000000E+000        
  0.000000000000000E+000  0.000000000000000E+000  0.000000000000000E+000        
  0.000000000000000E+000  0.000000000000000E+000  0.000000000000000E+000        
   7.91500000000000       3.613200000000000E-002  0.000000000000000E+000        
  0.000000000000000E+000  0.000000000000000E+000  0.000000000000000E+000        
  0.000000000000000E+000  0.000000000000000E+000  0.000000000000000E+000        
   2.36800000000000       0.142493000000000       0.000000000000000E+000        
  0.000000000000000E+000  0.000000000000000E+000  0.000000000000000E+000        
  0.000000000000000E+000  0.000000000000000E+000  0.000000000000000E+000        
  0.813200000000000       0.342150000000000        1.00000000000000             
  0.000000000000000E+000  0.000000000000000E+000  0.000000000000000E+000        
  0.000000000000000E+000  0.000000000000000E+000  0.000000000000000E+000        
  0.289000000000000       0.463864000000000       0.000000000000000E+000        
   1.00000000000000       0.000000000000000E+000  0.000000000000000E+000        
  0.000000000000000E+000  0.000000000000000E+000  0.000000000000000E+000        
  0.100700000000000       0.250028000000000       0.000000000000000E+000        
  0.000000000000000E+000   1.00000000000000       0.000000000000000E+000        
  0.000000000000000E+000  0.000000000000000E+000  0.000000000000000E+000        
   8.18200000000000       0.000000000000000E+000  0.000000000000000E+000        
  0.000000000000000E+000  0.000000000000000E+000   1.00000000000000             
  0.000000000000000E+000  0.000000000000000E+000  0.000000000000000E+000        
   24.1860000000000       0.000000000000000E+000  0.000000000000000E+000        
  0.000000000000000E+000  0.000000000000000E+000  0.000000000000000E+000        
   1.00000000000000       0.000000000000000E+000  0.000000000000000E+000        
   71.4940000000000       0.000000000000000E+000  0.000000000000000E+000        
  0.000000000000000E+000  0.000000000000000E+000  0.000000000000000E+000        
  0.000000000000000E+000   1.00000000000000       0.000000000000000E+000        
  3.218000000000000E-002  0.000000000000000E+000  0.000000000000000E+000        
  0.000000000000000E+000  0.000000000000000E+000  0.000000000000000E+000        
  0.000000000000000E+000  0.000000000000000E+000   1.00000000000000             
    6    6                                                                      
   1.84800000000000        1.00000000000000       0.000000000000000E+000        
  0.000000000000000E+000  0.000000000000000E+000  0.000000000000000E+000        
  0.000000000000000E+000                                                        
  0.649000000000000       0.000000000000000E+000   1.00000000000000             
  0.000000000000000E+000  0.000000000000000E+000  0.000000000000000E+000        
  0.000000000000000E+000                                                        
  0.228000000000000       0.000000000000000E+000  0.000000000000000E+000        
   1.00000000000000       0.000000000000000E+000  0.000000000000000E+000        
  0.000000000000000E+000                                                        
   8.65600000000000       0.000000000000000E+000  0.000000000000000E+000        
  0.000000000000000E+000   1.00000000000000       0.000000000000000E+000        
  0.000000000000000E+000                                                        
   33.2130000000000       0.000000000000000E+000  0.000000000000000E+000        
  0.000000000000000E+000  0.000000000000000E+000   1.00000000000000             
  0.000000000000000E+000                                                        
  7.660000000000000E-002  0.000000000000000E+000  0.000000000000000E+000        
  0.000000000000000E+000  0.000000000000000E+000  0.000000000000000E+000        
   1.00000000000000                                                             
    4    4                                                                      
   1.41900000000000        1.00000000000000       0.000000000000000E+000        
  0.000000000000000E+000  0.000000000000000E+000                                
  0.485000000000000       0.000000000000000E+000   1.00000000000000             
  0.000000000000000E+000  0.000000000000000E+000                                
   24.6940000000000       0.000000000000000E+000  0.000000000000000E+000        
   1.00000000000000       0.000000000000000E+000                                
  0.187000000000000       0.000000000000000E+000  0.000000000000000E+000        
  0.000000000000000E+000   1.00000000000000                                     
    2    2                                                                      
   1.01100000000000        1.00000000000000       0.000000000000000E+000        
  0.424000000000000       0.000000000000000E+000   1.00000000000000             
          8.00000000    1    5    1    1    1    1    1                         
O #2   0.000000000000000   0.000000000000000  -0.938373227053323                
   16    9                                                                      
   61420.0000000000       9.000000000000001E-005 -2.000000000000000E-005        
  0.000000000000000E+000  0.000000000000000E+000  0.000000000000000E+000        
  0.000000000000000E+000  0.000000000000000E+000  0.000000000000000E+000        
  0.000000000000000E+000                                                        
   9199.00000000000       6.980000000000001E-004 -1.590000000000000E-004        
  0.000000000000000E+000  0.000000000000000E+000  0.000000000000000E+000        
  0.000000000000000E+000  0.000000000000000E+000  0.000000000000000E+000        
  0.000000000000000E+000                                                        
   2091.00000000000       3.664000000000000E-003 -8.290000000000000E-004        
  0.000000000000000E+000  0.000000000000000E+000  0.000000000000000E+000        
  0.000000000000000E+000  0.000000000000000E+000  0.000000000000000E+000        
  0.000000000000000E+000                                                        
   590.900000000000       1.521800000000000E-002 -3.508000000000000E-003        
  0.000000000000000E+000  0.000000000000000E+000  0.000000000000000E+000        
  0.000000000000000E+000  0.000000000000000E+000  0.000000000000000E+000        
  0.000000000000000E+000                                                        
   192.300000000000       5.242300000000000E-002 -1.215600000000000E-002        
  0.000000000000000E+000  0.000000000000000E+000  0.000000000000000E+000        
  0.000000000000000E+000  0.000000000000000E+000  0.000000000000000E+000        
  0.000000000000000E+000                                                        
   69.3200000000000       0.145921000000000      -3.626100000000000E-002        
  0.000000000000000E+000  0.000000000000000E+000  0.000000000000000E+000        
  0.000000000000000E+000  0.000000000000000E+000  0.000000000000000E+000        
  0.000000000000000E+000                                                        
   26.9700000000000       0.305258000000000      -8.299200000000000E-002        
  0.000000000000000E+000  0.000000000000000E+000  0.000000000000000E+000        
  0.000000000000000E+000  0.000000000000000E+000  0.000000000000000E+000        
  0.000000000000000E+000                                                        
   11.1000000000000       0.398508000000000      -0.152090000000000             
  0.000000000000000E+000  0.000000000000000E+000  0.000000000000000E+000        
  0.000000000000000E+000  0.000000000000000E+000  0.000000000000000E+000        
  0.000000000000000E+000                                                        
   4.68200000000000       0.216980000000000      -0.115331000000000             
  0.000000000000000E+000  0.000000000000000E+000  0.000000000000000E+000        
  0.000000000000000E+000  0.000000000000000E+000  0.000000000000000E+000        
  0.000000000000000E+000                                                        
   1.42800000000000       1.759400000000000E-002  0.288979000000000             
   1.00000000000000       0.000000000000000E+000  0.000000000000000E+000        
  0.000000000000000E+000  0.000000000000000E+000  0.000000000000000E+000        
  0.000000000000000E+000                                                        
  0.554700000000000      -2.502000000000000E-003  0.586128000000000             
  0.000000000000000E+000   1.00000000000000       0.000000000000000E+000        
  0.000000000000000E+000  0.000000000000000E+000  0.000000000000000E+000        
  0.000000000000000E+000                                                        
  0.206700000000000       9.540000000000000E-004  0.277624000000000             
  0.000000000000000E+000  0.000000000000000E+000   1.00000000000000             
  0.000000000000000E+000  0.000000000000000E+000  0.000000000000000E+000        
  0.000000000000000E+000                                                        
   12.9740000000000       0.000000000000000E+000  0.000000000000000E+000        
  0.000000000000000E+000  0.000000000000000E+000  0.000000000000000E+000        
   1.00000000000000       0.000000000000000E+000  0.000000000000000E+000        
  0.000000000000000E+000                                                        
   34.9000000000000       0.000000000000000E+000  0.000000000000000E+000        
  0.000000000000000E+000  0.000000000000000E+000  0.000000000000000E+000        
  0.000000000000000E+000   1.00000000000000       0.000000000000000E+000        
  0.000000000000000E+000                                                        
   93.8810000000000       0.000000000000000E+000  0.000000000000000E+000        
  0.000000000000000E+000  0.000000000000000E+000  0.000000000000000E+000        
  0.000000000000000E+000  0.000000000000000E+000   1.00000000000000             
  0.000000000000000E+000                                                        
  6.959000000000000E-002  0.000000000000000E+000  0.000000000000000E+000        
  0.000000000000000E+000  0.000000000000000E+000  0.000000000000000E+000        
  0.000000000000000E+000  0.000000000000000E+000  0.000000000000000E+000        
   1.00000000000000                                                             
   10    8                                                                      
   63.4200000000000       6.044000000000000E-003  0.000000000000000E+000        
  0.000000000000000E+000  0.000000000000000E+000  0.000000000000000E+000        
  0.000000000000000E+000  0.000000000000000E+000  0.000000000000000E+000        
   14.6600000000000       4.179900000000000E-002  0.000000000000000E+000        
  0.000000000000000E+000  0.000000000000000E+000  0.000000000000000E+000        
  0.000000000000000E+000  0.000000000000000E+000  0.000000000000000E+000        
   4.45900000000000       0.161143000000000       0.000000000000000E+000        
  0.000000000000000E+000  0.000000000000000E+000  0.000000000000000E+000        
  0.000000000000000E+000  0.000000000000000E+000  0.000000000000000E+000        
   1.53100000000000       0.356731000000000        1.00000000000000             
  0.000000000000000E+000  0.000000000000000E+000  0.000000000000000E+000        
  0.000000000000000E+000  0.000000000000000E+000  0.000000000000000E+000        
  0.530200000000000       0.448309000000000       0.000000000000000E+000        
   1.00000000000000       0.000000000000000E+000  0.000000000000000E+000        
  0.000000000000000E+000  0.000000000000000E+000  0.000000000000000E+000        
  0.175000000000000       0.244940000000000       0.000000000000000E+000        
  0.000000000000000E+000   1.00000000000000       0.000000000000000E+000        
  0.000000000000000E+000  0.000000000000000E+000  0.000000000000000E+000        
   14.4750000000000       0.000000000000000E+000  0.000000000000000E+000        
  0.000000000000000E+000  0.000000000000000E+000   1.00000000000000             
  0.000000000000000E+000  0.000000000000000E+000  0.000000000000000E+000        
   42.7300000000000       0.000000000000000E+000  0.000000000000000E+000        
  0.000000000000000E+000  0.000000000000000E+000  0.000000000000000E+000        
   1.00000000000000       0.000000000000000E+000  0.000000000000000E+000        
   126.140000000000       0.000000000000000E+000  0.000000000000000E+000        
  0.000000000000000E+000  0.000000000000000E+000  0.000000000000000E+000        
  0.000000000000000E+000   1.00000000000000       0.000000000000000E+000        
  5.348000000000000E-002  0.000000000000000E+000  0.000000000000000E+000        
  0.000000000000000E+000  0.000000000000000E+000  0.000000000000000E+000        
  0.000000000000000E+000  0.000000000000000E+000   1.00000000000000             
    6    6                                                                      
   3.77500000000000        1.00000000000000       0.000000000000000E+000        
  0.000000000000000E+000  0.000000000000000E+000  0.000000000000000E+000        
  0.000000000000000E+000                                                        
   1.30000000000000       0.000000000000000E+000   1.00000000000000             
  0.000000000000000E+000  0.000000000000000E+000  0.000000000000000E+000        
  0.000000000000000E+000                                                        
  0.444000000000000       0.000000000000000E+000  0.000000000000000E+000        
   1.00000000000000       0.000000000000000E+000  0.000000000000000E+000        
  0.000000000000000E+000                                                        
   14.9270000000000       0.000000000000000E+000  0.000000000000000E+000        
  0.000000000000000E+000   1.00000000000000       0.000000000000000E+000        
  0.000000000000000E+000                                                        
   57.5440000000000       0.000000000000000E+000  0.000000000000000E+000        
  0.000000000000000E+000  0.000000000000000E+000   1.00000000000000             
  0.000000000000000E+000                                                        
  0.154000000000000       0.000000000000000E+000  0.000000000000000E+000        
  0.000000000000000E+000  0.000000000000000E+000  0.000000000000000E+000        
   1.00000000000000                                                             
    4    4                                                                      
   2.66600000000000        1.00000000000000       0.000000000000000E+000        
  0.000000000000000E+000  0.000000000000000E+000                                
  0.859000000000000       0.000000000000000E+000   1.00000000000000             
  0.000000000000000E+000  0.000000000000000E+000                                
   26.4830000000000       0.000000000000000E+000  0.000000000000000E+000        
   1.00000000000000       0.000000000000000E+000                                
  0.324000000000000       0.000000000000000E+000  0.000000000000000E+000        
  0.000000000000000E+000   1.00000000000000                                     
    2    2                                                                      
   1.84600000000000        1.00000000000000       0.000000000000000E+000        
  0.714000000000000       0.000000000000000E+000   1.00000000000000             
FINISH                                                                          
 
********************************************************************************
 ONE- AND TWO-ELECTRON INTEGRALS OVER SYMMETRY-ADAPTED AOS ARE CALCULATED.

  SPHERICAL HARMONICS ARE USED.
  
  INTEGRALS LESS THAN  0.10E-13 ARE NEGLECTED.

  NUCLEAR REPULSION ENERGY :   20.4615145333 A.U.
  @MOLECU-I, ONE ELECTRON INTEGRALS (CPU/WALL):        0.06/       0.07 SECONDS.
  @TWOEL-I,    4549285 INTEGRALS OF SYMMETRY TYPE  I I I I
  @TWOEL-I,   19555388 INTEGRALS OF SYMMETRY TYPE  I J I J
  @TWOEL-I,   10304650 INTEGRALS OF SYMMETRY TYPE  I I J J
  @TWOEL-I,   14470983 INTEGRALS OF SYMMETRY TYPE  I J K L
  @TWOEL-I, TOTAL NUMBER OF 2-E INTEGRALS   48880306.
  @MOLECU-I, TWO ELECTRON INTEGRALS (CPU/WALL):      241.70/      32.85 SECONDS.
 @CHECKOUT-I, Total execution time (CPU/WALL):      241.79/      32.95 seconds.

Running with 14 threads/proc

--executable xvmol finished with status     0 in       32.99 seconds (walltime).
 --invoking executable--
/nfs/workspaces/public/cfour_mpi/bin/xvmol2ja
 @GETMEM-I,  Allocated    3814 MB of main memory.
 @CHECKOUT-I, Total execution time (CPU/WALL):        0.24/       0.07 seconds.
--executable xvmol2ja finished with status     0 in        0.16 seconds (walltime).
 --invoking executable--
/nfs/workspaces/public/cfour_mpi/bin/xvprop
 @GETMEM-I,  Allocated    3814 MB of main memory.
   Property integrals will be calculated.
    --------------------------------------------------------------
                                   Property evaluated at 
    Property type                X             Y             Z
    --------------------------------------------------------------
    Dipole moment               ----          ----          ----  
    Quadrupole moment           ----          ----          ----  
    Octopole moment             ----          ----          ----  
    Relativisitic corr.         ----          ----          ----  
    Second moment            0.0000000     0.0000000     0.0000000
    Electron density         0.0000000     0.0000000     1.4074942
    Electron density         0.0000000     0.0000000    -0.9383732
    Field gradient           0.0000000     0.0000000     1.4074942
    Field gradient           0.0000000     0.0000000    -0.9383732
    Potential                0.0000000     0.0000000     1.4074942
    Potential                0.0000000     0.0000000    -0.9383732
    --------------------------------------------------------------
 @CHECKOUT-I, Total execution time (CPU/WALL):        1.34/       1.39 seconds.
--executable xvprop finished with status     0 in        1.41 seconds (walltime).
 --invoking executable--
/nfs/workspaces/public/cfour_mpi/bin/xvscf
  There are  218 functions in the AO basis.

  There are 4 irreducible representations.

       Irrep        # of functions
         1                 86
         2                 52
         3                 52
         4                 28


  Parameters for SCF calculation: 
        SCF reference function:  RHF  
  Maximum number of iterations:  150
     Full symmetry point group: CXv 
     Computational point group: C2v 
        Initial density matrix: MOREAD                 
     SCF convergence tolerance: 10**(-10)
  DIIS convergence acceleration:  ON
          Latest start for DIIS:   8
                     DIIS order:   6

  Memory information:    2523578 words required.
  Fock matrices are constructed from AO integral file.
 @GETMEM-I,  Allocated      19 MB of main memory.
  Initialization and symmetry analysis required      0.001 seconds.

  Adding electric field perturbation to one-electron Hamiltonian.
  Field direction     : Z
  Field strength      :  0.0002000 a.u.

  @INITGES-I, Occupancies from core Hamiltonian:

          Alpha population by irrep:   5    1    1    0
           Beta population by irrep:   5    1    1    0


 total no. of electrons in initial guess :  0.000000000000000E+000
  --------------------------------------------------------------------
  Iteration         Total Energy            Largest Density Difference
  --------------------------------------------------------------------
       0            20.461326937483591              0.0000000000D+00
   current occupation vector 
     5  1  1  0
     5  1  1  0
       1           -92.522891652407480              0.1813390801D+02
   current occupation vector 
     5  1  1  0
     5  1  1  0
       2           -98.019140174229960              0.1812955797D+02
   current occupation vector 
     5  1  1  0
     5  1  1  0
       3          -103.522051538113246              0.8574812814D+01
   current occupation vector 
     5  1  1  0
     5  1  1  0
       4           -99.768719414505838              0.7227705201D+01
   current occupation vector 
     5  1  1  0
     5  1  1  0
       5          -102.364189071724951              0.5900846795D+01
   current occupation vector 
     5  1  1  0
     5  1  1  0
       6           -98.944636693409748              0.5901055499D+01
   current occupation vector 
     5  1  1  0
     5  1  1  0
       7          -102.372251281615249              0.6022678111D+01
   current occupation vector 
     5  1  1  0
     5  1  1  0
       8           -98.840830527130748              0.6018841941D+01
   current occupation vector 
     5  1  1  0
     5  1  1  0
       9          -109.784393007201203              0.4546838826D+01
   current occupation vector 
     5  1  1  0
     5  1  1  0
      10          -111.722256867232858              0.1097046436D+01
   current occupation vector 
     5  1  1  0
     5  1  1  0
      11          -112.687032535847123              0.6616357408D+00
   current occupation vector 
     5  1  1  0
     5  1  1  0
      12          -112.750306346167491              0.2127476122D+00
   current occupation vector 
     5  1  1  0
     5  1  1  0
      13          -112.751657474842006              0.4365326608D-01
   current occupation vector 
     5  1  1  0
     5  1  1  0
      14          -112.751834359787324              0.1743119341D-01
   current occupation vector 
     5  1  1  0
     5  1  1  0
      15          -112.751863044547719              0.1030494328D-01
   current occupation vector 
     5  1  1  0
     5  1  1  0
      16          -112.751863375149583              0.7722308558D-03
   current occupation vector 
     5  1  1  0
     5  1  1  0
      17          -112.751863391665296              0.2094243160D-03
   current occupation vector 
     5  1  1  0
     5  1  1  0
      18          -112.751863392563735              0.5531639591D-04
   current occupation vector 
     5  1  1  0
     5  1  1  0
      19          -112.751863392597045              0.1065644782D-04
   current occupation vector 
     5  1  1  0
     5  1  1  0
      20          -112.751863392597500              0.1697273450D-05
   current occupation vector 
     5  1  1  0
     5  1  1  0
      21          -112.751863392597045              0.2382019131D-06
   current occupation vector 
     5  1  1  0
     5  1  1  0
      22          -112.751863392596789              0.4946373577D-07
   current occupation vector 
     5  1  1  0
     5  1  1  0
      23          -112.751863392596789              0.1973506336D-07
   current occupation vector 
     5  1  1  0
     5  1  1  0
      24          -112.751863392596903              0.3169907115D-09
   current occupation vector 
     5  1  1  0
     5  1  1  0
      25          -112.751863392597755              0.1304401032D-09
   current occupation vector 
     5  1  1  0
     5  1  1  0

  SCF has converged.

 Density matrix saved to file den.dat
 total electron number:   13.9999999999998     
     E(SCF)=      -112.751863392596562              0.4215650051D-10

  Eigenvector printing suppressed.

 @PUTMOS-I, Writing converged MOs to NEWMOS. 
 @PUTMOS-I, Symmetry   1 Full Blocks 21 Partial Blocksize   2
 @PUTMOS-I, Symmetry   2 Full Blocks 13 Partial Blocksize   0
 @PUTMOS-I, Symmetry   3 Full Blocks 13 Partial Blocksize   0
 @PUTMOS-I, Symmetry   4 Full Blocks  7 Partial Blocksize   0
 @PUTFOCK-I, Writing converged Fock matrix to NEWFOCK. 
 @PUTFOCK-I, Symmetry   1 Full Blocks 21 Partial Blocksize   2
 @PUTFOCK-I, Symmetry   2 Full Blocks 13 Partial Blocksize   0
 @PUTFOCK-I, Symmetry   3 Full Blocks 13 Partial Blocksize   0
 @PUTFOCK-I, Symmetry   4 Full Blocks  7 Partial Blocksize   0


 
  ORBITAL EIGENVALUES (ALPHA)  (1H = 27.2113834 eV)

       MO #        E(hartree)               E(eV)           FULLSYM    COMPSYM
       ----   --------------------   --------------------   -------   ---------
    1     1         -20.6666152685        -562.3671916502     SG+        A1 (1)
    2     2         -11.4095547980        -310.4697700325     SG+        A1 (1)
    3     3          -1.4473265185         -39.3837568011     SG+        A1 (1)
    4     4          -0.7962082197         -21.6659271322     SG+        A1 (1)
    5    87          -0.5950850137         -16.1930864643      PI        B1 (2)
    6   139          -0.5950850137         -16.1930864643      PI        B2 (3)
    7     5          -0.5641962000         -15.3525591119     SG+        A1 (1)
  +++++++++++++++++++++++++++++++++++++++++++++++++++++++++++++++++++++++++++++
    8    88           0.0568282233           1.5463745733      PI        B1 (2)
    9   140           0.0568282233           1.5463745733      PI        B2 (3)
   10     6           0.0616583248           1.6778083151     SG+        A1 (1)
   11     7           0.0732816300           1.9940945306     SG+        A1 (1)
   12    89           0.1135126207           3.0888354430      PI        B1 (2)
   13   141           0.1135126207           3.0888354430      PI        B2 (3)
   14     8           0.1562405774           4.2515222534     SG+        A1 (1)
   15    90           0.1670981483           4.5469717797      PI        B1 (2)
   16   142           0.1670981483           4.5469717797      PI        B2 (3)
   17   191           0.2275515630           6.1919928230      DE        A2 (4)
   18     9           0.2275515630           6.1919928230      DE        A1 (1)
   19    10           0.2283425321           6.2135161871     SG+        A1 (1)
   20    11           0.3003243600           8.1722413051     SG+        A1 (1)
   21   143           0.3101987640           8.4409374965      PI        B2 (3)
   22    91           0.3101987640           8.4409374965      PI        B1 (2)
   23    12           0.3867970962          10.5252840818     SG+        A1 (1)
   24   144           0.3955565694          10.7636414670      PI        B2 (3)
   25    92           0.3955565694          10.7636414670      PI        B1 (2)
   26    13           0.5088476967          13.8464497675     SG+        A1 (1)
   27    14           0.5408962310          14.7185347225      DE        A1 (1)
   28   192           0.5408962310          14.7185347225      DE        A2 (4)
   29    15           0.5974167445          16.2565360831     SG+        A1 (1)
   30    93           0.6251765432          17.0119186104      PI        B1 (2)
   31   145           0.6251765432          17.0119186104      PI        B2 (3)
   32   146           0.7461869645          20.3047795783      PH        B2 (3)
   33    94           0.7461869645          20.3047795783      PH        B1 (2)
   34    16           0.7632762188          20.7698018311      DE        A1 (1)
   35   193           0.7632762188          20.7698018311      DE        A2 (4)
   36    17           0.7736073446          21.0509260547     SG+        A1 (1)
   37    95           0.8101652457          22.0457171184      PI        B1 (2)
   38   147           0.8101652457          22.0457171184      PI        B2 (3)
   39    18           0.8451661691          22.9981406641     SG+        A1 (1)
   40    19           0.8726969670          23.7472917617     SG+        A1 (1)
   41    20           0.8844935041          24.0682918537      DE        A1 (1)
   42   194           0.8844935041          24.0682918537      DE        A2 (4)
   43    96           0.8900343604          24.2190662193      PI        B1 (2)
   44   148           0.8900343604          24.2190662193      PI        B2 (3)
   45    97           1.0538188640          28.6758691427      PI        B1 (2)
   46   149           1.0538188640          28.6758691427      PI        B2 (3)
   47    21           1.1389034203          30.9911376249     SG+        A1 (1)
   48    22           1.4369398740          39.1011218329     SG+        A1 (1)
   49   150           1.4391954570          39.1624993683      PH        B2 (3)
   50    98           1.4391954570          39.1624993683      PH        B1 (2)
   51    23           1.5363654180          41.8066284315      DE        A1 (1)
   52   195           1.5363654180          41.8066284315      DE        A2 (4)
   53    99           1.5677913357          42.6617711271      PI        B1 (2)
   54   151           1.5677913357          42.6617711272      PI        B2 (3)
   55    24           1.6619423428          45.2237502782     SG+        A1 (1)
   56   100           1.7218571118          46.8541140279      PI        B1 (2)
   57   152           1.7218571118          46.8541140279      PI        B2 (3)
   58    25           1.7511960876          47.6524681479      DE        A1 (1)
   59   196           1.7511960876          47.6524681480      DE        A2 (4)
   60    26           1.8134607541          49.3467758612     SG+        A1 (1)
   61   101           2.0231415668          55.0524808464      PI        B1 (2)
   62   153           2.0231415668          55.0524808464      PI        B2 (3)
   63    27           2.0715968232          56.3710154060     SG+        A1 (1)
   64   197           2.0976655455          57.0803814042      PI        A2 (4)
   65    28           2.0976655455          57.0803814042      PI        A1 (1)
   66   198           2.1747542771          59.1780724351      DE        A2 (4)
   67    29           2.1747542771          59.1780724351      DE        A1 (1)
   68   154           2.2419241682          61.0058580940      PH        B2 (3)
   69   102           2.2419241682          61.0058580940      PH        B1 (2)
   70   103           2.3010942804          62.6159587044      PI        B1 (2)
   71   155           2.3010942804          62.6159587044      PI        B2 (3)
   72    30           2.3049110293          62.7198177219     SG+        A1 (1)
   73   104           2.3224302033          63.1965386811      PH        B1 (2)
   74   156           2.3224302033          63.1965386811      PH        B2 (3)
   75    31           2.3458212474          63.8330413522      DE        A1 (1)
   76   199           2.3458212474          63.8330413522      DE        A2 (4)
   77    32           2.4843827090          67.6034904056     SG+        A1 (1)
   78   157           2.5676625931          69.8696512631      PI        B2 (3)
   79   105           2.5676625931          69.8696512631      PI        B1 (2)
   80   158           2.7403711522          74.5692900820      PI        B2 (3)
   81   106           2.7403711522          74.5692900820      PI        B1 (2)
   82    33           2.7857556419          75.8042648312     SG+        A1 (1)
   83    34           2.9126851306          79.2581918124      DE        A1 (1)
   84   200           2.9126851306          79.2581918125      DE        A2 (4)
   85    35           3.4593136145          94.1327090651     SG+        A1 (1)
   86   159           3.6961957933         100.5786008518      PI        B2 (3)
   87   107           3.6961957933         100.5786008518      PI        B1 (2)
   88   201           3.7080724789         100.9017818977      PI        A2 (4)
   89    36           3.7080724789         100.9017818977      PI        A1 (1)
   90    37           3.9090983212         106.3719731673     SG+        A1 (1)
   91   160           4.0874306511         111.2246425689      PH        B2 (3)
   92   108           4.0874306511         111.2246425689      PH        B1 (2)
   93   109           4.1750009222         113.6075507885      PH        B1 (2)
   94   161           4.1750009222         113.6075507885      PH        B2 (3)
   95    38           4.1914607968         114.0554467470      DE        A1 (1)
   96   202           4.1914607968         114.0554467470      DE        A2 (4)
   97   110           4.1958337863         114.1744418429      PI        B1 (2)
   98   162           4.1958337863         114.1744418429      PI        B2 (3)
   99    39           4.2364256176         115.2790017266     SG+        A1 (1)
  100    40           4.3333503151         117.9164568302      DE        A1 (1)
  101   203           4.3333503151         117.9164568303      DE        A2 (4)
  102    41           4.4026045428         119.8009601731     SG+        A1 (1)
  103   163           4.8503459122         131.9846222406      PI        B2 (3)
  104   111           4.8503459122         131.9846222406      PI        B1 (2)
  105   112           4.9514741439         134.7364613237      PI        B1 (2)
  106   164           4.9514741439         134.7364613237      PI        B2 (3)
  107    42           5.0606852247         137.7082459158      DE        A1 (1)
  108   204           5.0606852247         137.7082459159      DE        A2 (4)
  109    43           5.1649434400         140.5452561860     SG+        A1 (1)
  110    44           5.4592909785         148.5548599078     SG+        A1 (1)
  111   113           5.6816185202         154.6046998862      PI        B1 (2)
  112   165           5.6816185202         154.6046998863      PI        B2 (3)
  113   205           5.8837255972         160.1043130470      PI        A2 (4)
  114    45           5.8837255972         160.1043130470      PI        A1 (1)
  115   114           6.0403241897         164.3655773854      PH        B1 (2)
  116   166           6.0403241897         164.3655773854      PH        B2 (3)
  117    46           6.2339526023         169.6344743578     SG+        A1 (1)
  118   206           6.2616805144         170.3889892069      DE        A2 (4)
  119    47           6.2616805144         170.3889892069      DE        A1 (1)
  120   167           6.2921493684         171.2180888734      PI        B2 (3)
  121   115           6.2921493684         171.2180888734      PI        B1 (2)
  122   116           6.4228511797         174.7746659706      PH        B1 (2)
  123   168           6.4228511797         174.7746659706      PH        B2 (3)
  124    48           6.5520131076         178.2893407122      DE        A1 (1)
  125   207           6.5520131076         178.2893407124      DE        A2 (4)
  126    49           6.7319037683         183.1844144515     SG+        A1 (1)
  127   208           6.9598177329         189.3862687233      DE        A2 (4)
  128    50           6.9598177329         189.3862687233      DE        A1 (1)
  129   117           7.2449245023         197.1444183358      PI        B1 (2)
  130   169           7.2449245023         197.1444183358      PI        B2 (3)
  131    51           7.5993863717         206.7898161657     SG+        A1 (1)
  132   118           8.1380678281         221.4480838048      PI        B1 (2)
  133   170           8.1380678281         221.4480838048      PI        B2 (3)
  134    52           8.1651071476         222.1838610950     SG+        A1 (1)
  135   171          10.1023255740         274.8982544249      PI        B2 (3)
  136   119          10.1023255740         274.8982544250      PI        B1 (2)
  137    53          10.3708913218         282.2062999572     SG+        A1 (1)
  138   209          10.6095445981         288.7003857575      PI        A2 (4)
  139    54          10.6095445981         288.7003857575      PI        A1 (1)
  140   172          10.8191433135         294.4038567640      PH        B2 (3)
  141   120          10.8191433135         294.4038567640      PH        B1 (2)
  142    55          10.9568889978         298.1521073909     SG+        A1 (1)
  143    56          11.0549838366         300.8214036596      DE        A1 (1)
  144   210          11.0549838366         300.8214036596      DE        A2 (4)
  145   173          11.2758820453         306.8323495065      PI        B2 (3)
  146   121          11.2758820453         306.8323495065      PI        B1 (2)
  147    57          11.5092633655         313.1829780901     SG+        A1 (1)
  148   122          11.8573763065         322.6556127936      PH        B1 (2)
  149   174          11.8573763065         322.6556127936      PH        B2 (3)
  150    58          12.1819315144         331.4872089896      DE        A1 (1)
  151   211          12.1819315144         331.4872089898      DE        A2 (4)
  152   175          12.5664233445         341.9497635933      PI        B2 (3)
  153   123          12.5664233445         341.9497635933      PI        B1 (2)
  154    59          12.8152172408         348.7197896930      DE        A1 (1)
  155   212          12.8152172408         348.7197896930      DE        A2 (4)
  156    60          13.0273966369         354.4934845897     SG+        A1 (1)
  157   124          13.6096426971         370.3372053674      PI        B1 (2)
  158   176          13.6096426971         370.3372053674      PI        B2 (3)
  159    61          14.8295542123         403.5326853207     SG+        A1 (1)
  160    62          17.8596937009         485.9869727017     SG+        A1 (1)
  161   125          19.1779486086         521.8585124140      PI        B1 (2)
  162   177          19.1779486086         521.8585124148      PI        B2 (3)
  163    63          20.5244019840         558.4973714413     SG+        A1 (1)
  164    64          26.4351006929         719.3356601724      DE        A1 (1)
  165   213          26.4351006929         719.3356601725      DE        A2 (4)
  166   126          26.8665662995         731.0764362172      PI        B1 (2)
  167   178          26.8665662995         731.0764362172      PI        B2 (3)
  168    65          27.7239361488         754.4066559031     SG+        A1 (1)
  169   179          33.7501768589         918.3890023254      PI        B2 (3)
  170   127          33.7501768589         918.3890023258      PI        B1 (2)
  171    66          34.7205596693         944.7944610237     SG+        A1 (1)
  172    67          36.4110848016         990.7959885474     SG+        A1 (1)
  173    68          47.0985192863        1281.6158658728      DE        A1 (1)
  174   214          47.0985192863        1281.6158658729      DE        A2 (4)
  175   128          47.4505570784        1291.1953012034      PI        B1 (2)
  176   180          47.4505570784        1291.1953012034      PI        B2 (3)
  177    69          48.2340995807        1312.5165766436     SG+        A1 (1)
  178    70          64.0760066019        1743.5967823862     SG+        A1 (1)
  179   129          66.6644516809        1814.0319538403      PI        B1 (2)
  180   181          66.6644516809        1814.0319538411      PI        B2 (3)
  181    71          67.6865810449        1841.8455078475     SG+        A1 (1)
  182   130          98.6242535826        2683.7023767737      PH        B1 (2)
  183   182          98.6242535826        2683.7023767737      PH        B2 (3)
  184    72          98.6405566835        2684.1460067053      DE        A1 (1)
  185   215          98.6405566835        2684.1460067053      DE        A2 (4)
  186   131          98.6855589233        2685.3705799062      PI        B1 (2)
  187   183          98.6855589233        2685.3705799062      PI        B2 (3)
  188    73          98.7050225550        2685.9002122505     SG+        A1 (1)
  189   132         103.2830935441        2810.4758571667      PH        B1 (2)
  190   184         103.2830935441        2810.4758571667      PH        B2 (3)
  191    74         103.3181905507        2811.4308952688      DE        A1 (1)
  192   216         103.3181905508        2811.4308952715      DE        A2 (4)
  193   133         103.3538641687        2812.4016237665      PI        B1 (2)
  194   185         103.3538641687        2812.4016237665      PI        B2 (3)
  195    75         103.3830858161        2813.1967852180     SG+        A1 (1)
  196    76         115.1096650356        3132.2932283280      DE        A1 (1)
  197   217         115.1096650356        3132.2932283280      DE        A2 (4)
  198   134         115.3201259804        3138.0201617890      PI        B1 (2)
  199   186         115.3201259804        3138.0201617891      PI        B2 (3)
  200    77         115.7456631352        3149.5996164586     SG+        A1 (1)
  201   187         117.0065342508        3183.9096638027      PI        B2 (3)
  202   135         117.0065342508        3183.9096638031      PI        B1 (2)
  203    78         117.7668476481        3204.5988431620     SG+        A1 (1)
  204    79         122.6244714989        3336.7815081777     SG+        A1 (1)
  205    80         198.5627833319        5403.1680262151      DE        A1 (1)
  206   218         198.5627833319        5403.1680262151      DE        A2 (4)
  207   136         198.7510044911        5408.2897843420      PI        B1 (2)
  208   188         198.7510044911        5408.2897843422      PI        B2 (3)
  209    81         199.1482954882        5419.1006219849     SG+        A1 (1)
  210    82         216.5703747381        5893.1795000789     SG+        A1 (1)
  211   137         225.0977266366        6125.2205419765      PI        B1 (2)
  212   189         225.0977266366        6125.2205419771      PI        B2 (3)
  213    83         225.9253976775        6147.7426160008     SG+        A1 (1)
  214   190         395.4654145387       10761.1610164529      PI        B2 (3)
  215   138         395.4654145387       10761.1610164535      PI        B1 (2)
  216    84         396.0884758868       10778.1153776780     SG+        A1 (1)
  217    85         509.2080543837       13856.2555982039     SG+        A1 (1)
  218    86         895.3995757615       24365.0611522427     SG+        A1 (1)


  VSCF finished.

 @CHECKOUT-I, Total execution time (CPU/WALL):       49.21/      13.55 seconds.
--executable xvscf finished with status     0 in       13.60 seconds (walltime).
 --invoking executable--
/nfs/workspaces/public/cfour_mpi/bin/xvtran
 @GETMEM-I,  Allocated    3814 MB of main memory.
  Full RHF integral transformation
  Transformation of IIII integrals :
  1 pass through the AO integral file was required.
     4549285 AO integrals were read.
     8785733 MO integrals were written to HF2.
  Transformation of IIJJ integrals :
  1 pass through the AO integral file was required.
    10304650 AO integrals were read.
    14579255 MO integrals were written to HF2.
  Transformation of IJIJ integrals :
  1 pass through the AO integral file was required.
    19555388 AO integrals were read.
    27335798 MO integrals were written to HF2.
  Transformation of IJKL integrals :
  1 pass through the AO integral file was required.
    14470983 AO integrals were read.
    18474342 MO integrals were written to HF2.
  Summary of active molecular orbitals: 
------------------------------------------------------------------------
 
  Index      Eigenvalue    Symmetry    Index      Eigenvalue    Symmetry
------------------------------------------------------------------------
     1       -20.6666153        1       110         4.1750009        2
     2       -11.4095548        1       111         4.1958338        2
     3        -1.4473265        1       112         4.8503459        2
     4        -0.7962082        1       113         4.9514741        2
     5        -0.5641962        1       114         5.6816185        2
     6        -0.5950850        2       115         6.0403242        2
     7        -0.5950850        3       116         6.2921494        2
     8         0.0616583        1       117         6.4228512        2
     9         0.0732816        1       118         7.2449245        2
    10         0.1562406        1       119         8.1380678        2
    11         0.2275516        1       120        10.1023256        2
    12         0.2283425        1       121        10.8191433        2
    13         0.3003244        1       122        11.2758820        2
    14         0.3867971        1       123        11.8573763        2
    15         0.5088477        1       124        12.5664233        2
    16         0.5408962        1       125        13.6096427        2
    17         0.5974167        1       126        19.1779486        2
    18         0.7632762        1       127        26.8665663        2
    19         0.7736073        1       128        33.7501769        2
    20         0.8451662        1       129        47.4505571        2
    21         0.8726970        1       130        66.6644517        2
    22         0.8844935        1       131        98.6242536        2
    23         1.1389034        1       132        98.6855589        2
    24         1.4369399        1       133       103.2830935        2
    25         1.5363654        1       134       103.3538642        2
    26         1.6619423        1       135       115.3201260        2
    27         1.7511961        1       136       117.0065343        2
    28         1.8134608        1       137       198.7510045        2
    29         2.0715968        1       138       225.0977266        2
    30         2.0976655        1       139       395.4654145        2
    31         2.1747543        1       140         0.0568282        3
    32         2.3049110        1       141         0.1135126        3
    33         2.3458212        1       142         0.1670981        3
    34         2.4843827        1       143         0.3101988        3
    35         2.7857556        1       144         0.3955566        3
    36         2.9126851        1       145         0.6251765        3
    37         3.4593136        1       146         0.7461870        3
    38         3.7080725        1       147         0.8101652        3
    39         3.9090983        1       148         0.8900344        3
    40         4.1914608        1       149         1.0538189        3
    41         4.2364256        1       150         1.4391955        3
    42         4.3333503        1       151         1.5677913        3
    43         4.4026045        1       152         1.7218571        3
    44         5.0606852        1       153         2.0231416        3
    45         5.1649434        1       154         2.2419242        3
    46         5.4592910        1       155         2.3010943        3
    47         5.8837256        1       156         2.3224302        3
    48         6.2339526        1       157         2.5676626        3
    49         6.2616805        1       158         2.7403712        3
    50         6.5520131        1       159         3.6961958        3
    51         6.7319038        1       160         4.0874307        3
    52         6.9598177        1       161         4.1750009        3
    53         7.5993864        1       162         4.1958338        3
    54         8.1651071        1       163         4.8503459        3
    55        10.3708913        1       164         4.9514741        3
    56        10.6095446        1       165         5.6816185        3
    57        10.9568890        1       166         6.0403242        3
    58        11.0549838        1       167         6.2921494        3
    59        11.5092634        1       168         6.4228512        3
    60        12.1819315        1       169         7.2449245        3
    61        12.8152172        1       170         8.1380678        3
    62        13.0273966        1       171        10.1023256        3
    63        14.8295542        1       172        10.8191433        3
    64        17.8596937        1       173        11.2758820        3
    65        20.5244020        1       174        11.8573763        3
    66        26.4351007        1       175        12.5664233        3
    67        27.7239361        1       176        13.6096427        3
    68        34.7205597        1       177        19.1779486        3
    69        36.4110848        1       178        26.8665663        3
    70        47.0985193        1       179        33.7501769        3
    71        48.2340996        1       180        47.4505571        3
    72        64.0760066        1       181        66.6644517        3
    73        67.6865810        1       182        98.6242536        3
    74        98.6405567        1       183        98.6855589        3
    75        98.7050226        1       184       103.2830935        3
    76       103.3181906        1       185       103.3538642        3
    77       103.3830858        1       186       115.3201260        3
    78       115.1096650        1       187       117.0065343        3
    79       115.7456631        1       188       198.7510045        3
    80       117.7668476        1       189       225.0977266        3
    81       122.6244715        1       190       395.4654145        3
    82       198.5627833        1       191         0.2275516        4
    83       199.1482955        1       192         0.5408962        4
    84       216.5703747        1       193         0.7632762        4
    85       225.9253977        1       194         0.8844935        4
    86       396.0884759        1       195         1.5363654        4
    87       509.2080544        1       196         1.7511961        4
    88       895.3995758        1       197         2.0976655        4
    89         0.0568282        2       198         2.1747543        4
    90         0.1135126        2       199         2.3458212        4
    91         0.1670981        2       200         2.9126851        4
    92         0.3101988        2       201         3.7080725        4
    93         0.3955566        2       202         4.1914608        4
    94         0.6251765        2       203         4.3333503        4
    95         0.7461870        2       204         5.0606852        4
    96         0.8101652        2       205         5.8837256        4
    97         0.8900344        2       206         6.2616805        4
    98         1.0538189        2       207         6.5520131        4
    99         1.4391955        2       208         6.9598177        4
   100         1.5677913        2       209        10.6095446        4
   101         1.7218571        2       210        11.0549838        4
   102         2.0231416        2       211        12.1819315        4
   103         2.2419242        2       212        12.8152172        4
   104         2.3010943        2       213        26.4351007        4
   105         2.3224302        2       214        47.0985193        4
   106         2.5676626        2       215        98.6405567        4
   107         2.7403712        2       216       103.3181906        4
   108         3.6961958        2       217       115.1096650        4
   109         4.0874307        2       218       198.5627833        4
------------------------------------------------------------------------
  -20.6666152684547       -11.4095547980291       -1.44732651854346     
 -0.796208219691209      -0.564196200033971      -0.595085013734104     
 -0.595085013734076       6.165832477004811E-002  7.328163001927884E-002
  0.156240577368995       0.227551562961687       0.228342532083992     
  0.300324360027457       0.386797096165916       0.508847696715969     
  0.540896231040899       0.597416744461467       0.763276218843405     
  0.773607344591131       0.845166169098676       0.872696967023491     
  0.884493504057070        1.13890342028163        1.43693987395455     
   1.53636541799319        1.66194234278317        1.75119608758812     
   1.81346075411858        2.07159682318841        2.09766554552332     
   2.17475427710701        2.30491102932718        2.34582124744919     
   2.48438270895245        2.78575564192882        2.91268513060481     
   3.45931361450220        3.70807247887797        3.90909832122991     
   4.19146079677179        4.23642561761942        4.33335031508345     
   4.40260454281458        5.06068522468992        5.16494344003096     
   5.45929097848937        5.88372559724443        6.23395260227180     
   6.26168051444671        6.55201310758208        6.73190376831514     
   6.95981773287098        7.59938637172324        8.16510714758462     
   10.3708913218001        10.6095445980703        10.9568889978175     
   11.0549838366393        11.5092633654979        12.1819315143531     
   12.8152172407743        13.0273966368702        14.8295542122523     
   17.8596937008964        20.5244019839624        26.4351006929096     
   27.7239361488373        34.7205596692938        36.4110848016416     
   47.0985192863381        48.2340995806767        64.0760066019364     
   67.6865810448841        98.6405566835406        98.7050225550276     
[...]
 Convergence information after     9 iterations: 
 Largest element of residual vector : -0.17021239E-04.
 Largest element of DIIS residual   : -0.69212963E-05.
 Convergence information after    10 iterations: 
 Largest element of residual vector : -0.77301611E-05.
 Largest element of DIIS residual   : -0.56623315E-05.
 Convergence information after    11 iterations: 
 Largest element of residual vector : -0.36451191E-05.
 Largest element of DIIS residual   : -0.11255951E-05.
 Convergence information after    12 iterations: 
 Largest element of residual vector : -0.17166971E-05.
 Largest element of DIIS residual   :  0.63355749E-06.
 Convergence information after    13 iterations: 
 Largest element of residual vector :  0.53358573E-06.
 Largest element of DIIS residual   :  0.16276086E-06.
 Convergence information after    14 iterations: 
 Largest element of residual vector :  0.20188186E-06.
 Largest element of DIIS residual   :  0.80643759E-07.
 Perturbed amplitude equations converged in    14 iterations.
  Dominant contributions to perturbed wavefunction:
    7    7  141   28   0.2314162600 ABAB
    7    7   28  141   0.2314162600 ABAB
    7    7  140   28   0.1783653571 ABAB
    7    7   28  140   0.1783653571 ABAB
    7    7  141   39   0.1770765057 ABAB
    7    7   39  141   0.1770765057 ABAB
    7    7  141   37  -0.1663322464 ABAB
    7    7   37  141  -0.1663322464 ABAB
    7    6   28   90   0.1493895379 ABAB
    6    7   90   28   0.1493895379 ABAB
    7    7  141   45   0.1378308144 ABAB
    7    7   45  141   0.1378308144 ABAB
    7    0   45    0  -0.1315780019 AA  
    7    7  141   54  -0.1309429259 ABAB
    7    7   54  141  -0.1309429259 ABAB
    7    7  140   39   0.1307013053 ABAB
    7    7   39  140   0.1307013053 ABAB
    7    7  141   20   0.1275253047 ABAB
    7    7   20  141   0.1275253047 ABAB
    7    7  140   37  -0.1249573495 ABAB
  norm of converged amps    2.18046747098925     
 Starting iterative solution of the perturbed Lambda equations.
 The DIIS procedure is used to accelerate convergence.
 Convergence criterion is 10**(-7).
 Maximum number of iterations is 100.
 Convergence information after     1 iterations: 
 Largest element of residual vector : -0.59049883E-01.
 Largest element of DIIS residual   : -0.59049883E-01.
 Convergence information after     2 iterations: 
 Largest element of residual vector : -0.99054233E-02.
 Largest element of DIIS residual   : -0.62217024E-02.
 Convergence information after     3 iterations: 
 Largest element of residual vector : -0.49810602E-02.
 Largest element of DIIS residual   : -0.43937631E-02.
 Convergence information after     4 iterations: 
 Largest element of residual vector : -0.30799445E-02.
 Largest element of DIIS residual   : -0.25285443E-02.
 Convergence information after     5 iterations: 
 Largest element of residual vector : -0.19853856E-02.
 Largest element of DIIS residual   : -0.10218296E-02.
 Convergence information after     6 iterations: 
 Largest element of residual vector : -0.69335063E-03.
 Largest element of DIIS residual   : -0.20739235E-03.
 Convergence information after     7 iterations: 
 Largest element of residual vector : -0.18748486E-03.
 Largest element of DIIS residual   :  0.84054102E-04.
 Convergence information after     8 iterations: 
 Largest element of residual vector :  0.51026943E-04.
 Largest element of DIIS residual   : -0.27356409E-04.
 Convergence information after     9 iterations: 
 Largest element of residual vector :  0.14271067E-04.
 Largest element of DIIS residual   : -0.65488496E-05.
 Convergence information after    10 iterations: 
 Largest element of residual vector : -0.57466673E-05.
 Largest element of DIIS residual   : -0.47809642E-05.
 Convergence information after    11 iterations: 
 Largest element of residual vector : -0.26592300E-05.
 Largest element of DIIS residual   : -0.10825984E-05.
 Convergence information after    12 iterations: 
 Largest element of residual vector : -0.14500835E-05.
 Largest element of DIIS residual   :  0.96689375E-06.
 Convergence information after    13 iterations: 
 Largest element of residual vector :  0.73961826E-06.
 Largest element of DIIS residual   :  0.42220125E-06.
 Convergence information after    14 iterations: 
 Largest element of residual vector :  0.40465953E-06.
 Largest element of DIIS residual   :  0.20625347E-06.
 Convergence information after    15 iterations: 
 Largest element of residual vector :  0.13535833E-06.
 Largest element of DIIS residual   :  0.65336489E-07.
 Perturbed Lambda equations converged in    15 iterations.
  Dominant contributions to perturbed wavefunction:
    7    7  141   28   0.2147131305 ABAB
    7    7   28  141   0.2147131305 ABAB
    7    7  140   28   0.1665418833 ABAB
    7    7   28  140   0.1665418833 ABAB
    7    7  141   39   0.1626710010 ABAB
    7    7   39  141   0.1626710010 ABAB
    7    7  141   37  -0.1558894251 ABAB
    7    7   37  141  -0.1558894251 ABAB
    7    6   28   90   0.1364544261 ABAB
    6    7   90   28   0.1364544261 ABAB
    7    7  141   45   0.1239367857 ABAB
    7    7   45  141   0.1239367857 ABAB
    7    7  141   54  -0.1233857686 ABAB
    7    7   54  141  -0.1233857686 ABAB
    7    7  140   39   0.1207989760 ABAB
    7    7   39  140   0.1207989760 ABAB
    7    7  140   37  -0.1177579113 ABAB
    7    7   37  140  -0.1177579113 ABAB
    7    7  141   20   0.1159452569 ABAB
    7    7   20  141   0.1159452569 ABAB
        The DBOC first-order density matrix is being calculated 
             (Symmetry block 3, perturbation   2)
 term   5.47239706405095     
 final tnorm  0.872219299357215     
  norm contr. I: |<0|L dT/dx|0>|^2   0.000000000000000E+000
  norm contr. II: <0|[nabla(1+L)e-T][nabla e^T]|0>   5.47239706405095     
  total norm contribution   5.47239706405095     
 oo  8.667864290967274E-003
 vv  -36.4818130788383     
 vo  5.239532414151029E-002
  Correlated perturbed 1-el contribution to DBOC  -36.4207498904058       cm**-1
  SUM_I |dc_I/dx|^2 contribution to DBOC   18.3073503597875       cm**-1
 
 
  The total diagonal Born-Oppenheimer correction (DBOC) is:      0.0038679298 a.u.
  The total diagonal Born-Oppenheimer correction (DBOC) is:        848.912460 cm-1
 
 Total CC energy including DBOC  -113.256615645015     
 First-order density matrix is being calculated  (Symmetry block 3, perturbation   2)
 Calculation of the contributions of <pq||rs> to dI(i,j)/dx required   3.1 seconds.
 Calculation of the contributions of <pq||rs> to dI(a,b)/dx required  16.4 seconds.
 Calculation of the contributions of <pq||rs> to dI(i,a)/dx required   9.5 seconds.
 First-order Z-vector equations are solved for 1 perturbation.
 Convergence reached after  18 iterations.
        U*G(pq,rs) contribution is being calculated
             (Symmetry block 3, perturbation   2)

 CCSD contribution to force constants 

        0.0000000000        0.0000000000        0.0000000000
        0.0000000000        0.0000000000        0.0000000000
        0.0000000000        0.0000000000        0.0000000000
        0.0000000000        0.0000000000        0.0000000000
        0.0000000000        0.0000000000        0.0000000000
        0.0000000000        0.0000000000        0.0000000000
        0.0000000000        0.0000000000        0.0000000000
        0.0000000000        0.0000000000        0.0000000000
        0.0000000000        0.0000000000        0.0000000000
        0.0000000000        0.0000000000        0.0000000000
        0.0000000000        0.0000000000        0.0000000000
        0.0000000000        1.2865670331       -1.2865670331

 CCSD contribution to dipole derivatives 

        0.0000000000        0.0000000000        0.0000000000
        0.0000000000        0.0000000000        0.0000000000
        0.0000000000        0.0000000000        0.0000000000
        0.0000000000        0.0000000000       -0.0492307240
        0.0000000000        0.0000000000        0.0000000000
        0.0000000000        0.0000000000        0.0000000000
 @CHECKOUT-I, Total execution time (CPU/WALL):     1199.23/     494.16 seconds.
--executable xsdcc finished with status     0 in      494.39 seconds (walltime).
 --invoking executable--
/nfs/workspaces/public/cfour_mpi/bin/xanti
 @GETMEM-I,  Allocated    3814 MB of main memory.
 CCSD MO derivative gammas will be sorted to Mulliken order.
 @CHECKOUT-I, Total execution time (CPU/WALL):       12.56/      24.32 seconds.
--executable xanti finished with status     0 in       24.47 seconds (walltime).
 --invoking executable--
/nfs/workspaces/public/cfour_mpi/bin/xbcktrn
 @GETMEM-I,  Allocated    3814 MB of main memory.
 CCSD MO derivative gammas will be transformed to the AO basis.
 @CHECKOUT-I, Total execution time (CPU/WALL):       27.01/       9.97 seconds.
--executable xbcktrn finished with status     0 in       10.03 seconds (walltime).
 --invoking executable--
/nfs/workspaces/public/cfour_mpi/bin/xvdint
 @GETMEM-I,  Allocated    3814 MB of main memory.
 One- and two-electron integral derivatives are calculated
 for RHF-CC/MBPT hessians and dipole derivatives.
 Spherical gaussians are used.
  magnet F F
                    8722  records have been written to the Sort file.
  Total length of Sort file :             178609116  words.
 Evaluation of 2el integral derivatives

                      Two-electron integral gradient
                      ------------------------------

                         C #1 z     0.0000000000
                         O #2 z     0.0000000000


 C #1       0.0000000000           -0.3134330270            0.0000000000
 O #2       0.0000000000            0.3134330270            0.0000000000


 Evaluation of 2e integral derivatives required  362.76 seconds.
  contribution to Hessian
        0.0000000000        0.0000000000        0.0000000000
        0.0000000000       -0.3134330270        0.3134330270
 @CHECKOUT-I, Total execution time (CPU/WALL):      362.74/      76.02 seconds.
--executable xvdint finished with status     0 in       76.19 seconds (walltime).
 --invoking executable--
/nfs/workspaces/public/cfour_mpi/bin/xanti
 @GETMEM-I,  Allocated    3814 MB of main memory.
 CCSD MO gammas will be sorted to Mulliken order.
 @CHECKOUT-I, Total execution time (CPU/WALL):       18.34/      54.89 seconds.
--executable xanti finished with status     0 in       55.04 seconds (walltime).
 --invoking executable--
/nfs/workspaces/public/cfour_mpi/bin/xbcktrn
 @GETMEM-I,  Allocated    3814 MB of main memory.
 CCSD MO gammas will be transformed to the AO basis.
 @CHECKOUT-I, Total execution time (CPU/WALL):       41.85/      19.22 seconds.
--executable xbcktrn finished with status     0 in       19.28 seconds (walltime).
 --invoking executable--
/nfs/workspaces/public/cfour_mpi/bin/xvdint
 @GETMEM-I,  Allocated    3814 MB of main memory.
 One- and two-electron integral derivatives are calculated
 for RHF-CC/MBPT hessians and dipole derivatives.
 Spherical gaussians are used.
  magnet F F

                     Kinetic energy integral gradient
                     --------------------------------

                         C #1 z    -1.1788333094
                         O #2 z     1.1788333094


 C #1       0.0000000000            0.0000000000           -1.1788333094
 O #2       0.0000000000            0.0000000000            1.1788333094



                   Nuclear attraction integral gradient
                   ------------------------------------

                         C #1 z    20.7166191627
                         O #2 z   -20.7166191627


 C #1       0.0000000000            0.0000000000           20.7166191627
 O #2       0.0000000000            0.0000000000          -20.7166191627



                      Reorthonormalization gradient
                      -----------------------------

                         C #1 z     0.0000000000
                         O #2 z     0.0000000000


 C #1       0.0000000000            0.0000000000            0.0000000000
 O #2       0.0000000000            0.0000000000            0.0000000000



                     Kinetic energy integral Hessian
                     -------------------------------


           Symmetry 1

           C #1 z      O #2 z

 C #1 z    1.039666
 O #2 z   -1.039666    1.039666


           Symmetry 2

           C #1 x      O #2 x

 C #1 x   -1.335393
 O #2 x    1.335393   -1.335393


           Symmetry 3

           C #1 y      O #2 y

 C #1 y   -1.335393
 O #2 y    1.335393   -1.335393




           C #1 x      C #1 y      C #1 z      O #2 x      O #2 y      O #2 z

 C #1 x   -1.335393
 C #1 y    0.000000   -1.335393
 C #1 z    0.000000    0.000000    1.039666

 O #2 x    1.335393    0.000000    0.000000   -1.335393
 O #2 y    0.000000    1.335393    0.000000    0.000000   -1.335393
 O #2 z    0.000000    0.000000   -1.039666    0.000000    0.000000    1.039666




                   Nuclear attraction integral Hessian
                   -----------------------------------


           Symmetry 1

           C #1 z      O #2 z

 C #1 z  -12.460672
 O #2 z   12.460672  -12.460672


           Symmetry 2

           C #1 x      O #2 x

 C #1 x   16.056761
 O #2 x  -16.056761   16.056761


           Symmetry 3

           C #1 y      O #2 y

 C #1 y   16.056761
 O #2 y  -16.056761   16.056761




           C #1 x      C #1 y      C #1 z      O #2 x      O #2 y      O #2 z

 C #1 x   16.056761
 C #1 y    0.000000   16.056761
 C #1 z    0.000000    0.000000  -12.460672

 O #2 x  -16.056761    0.000000    0.000000   16.056761
 O #2 y    0.000000  -16.056761    0.000000    0.000000   16.056761
 O #2 z    0.000000    0.000000   12.460672    0.000000    0.000000  -12.460672




                Highest order reorthonormalization Hessian
                ------------------------------------------


           Symmetry 1

           C #1 z      O #2 z

 C #1 z    0.000000
 O #2 z    0.000000    0.000000


           Symmetry 2

           C #1 x      O #2 x

 C #1 x    0.000000
 O #2 x    0.000000    0.000000


           Symmetry 3

           C #1 y      O #2 y

 C #1 y    0.000000
 O #2 y    0.000000    0.000000




           C #1 x      C #1 y      C #1 z      O #2 x      O #2 y      O #2 z




                Electronic contributions to dipole moment
                -----------------------------------------

                               au             Debye

                    z     -0.84125670     -2.13826162

  Conversion factor used: 1 a.u. =   2.54174691 Debye 



   Electronic contributions to static part of dipole moment derivatives
   --------------------------------------------------------------------


                     Total dipole moment derivatives
                     -------------------------------


           Symmetry 1
                              Ez

               C #1 z    -5.65792269
               O #2 z    -8.34207731

           Symmetry 2
                              Ex

               C #1 x    -5.73226690
               O #2 x    -8.26773310

           Symmetry 3
                              Ey

               C #1 y    -5.73226690
               O #2 y    -8.26773310



                       Ex          Ey          Ez

      C #1    x   -5.732267    0.000000    0.000000
      C #1    y    0.000000   -5.732267    0.000000
      C #1    z    0.000000    0.000000   -5.657923

      O #2    x   -8.267733    0.000000    0.000000
      O #2    y    0.000000   -8.267733    0.000000
      O #2    z    0.000000    0.000000   -8.342077

 Evaluation of 1e integral derivatives required    1.69 seconds.
                    8815  records have been written to the Sort file.
  Total length of Sort file :             180513570  words.
 Evaluation of 2el integral derivatives

                      Two-electron integral gradient
                      ------------------------------

                         C #1 z   -10.1784316465
                         O #2 z    10.1784316465


 C #1       0.0000000000            0.0000000000          -10.1784316465
 O #2       0.0000000000            0.0000000000           10.1784316465


 Evaluation of 2e integral derivatives required  718.33 seconds.

                            Molecular gradient
                            ------------------

                         C #1 z     0.6369880193
                         O #2 z    -0.6369880193


 C #1       0.0000000000            0.0000000000            0.6369880193
 O #2       0.0000000000            0.0000000000           -0.6369880193


  Molecular gradient norm 0.901E+00

                            Molecular hessian
                            -----------------


           Symmetry 1

           C #1 z      O #2 z

 C #1 z   48.479885
 O #2 z  -48.479885   48.479885


           Symmetry 2

           C #1 x      O #2 x

 C #1 x   -0.712590
 O #2 x    0.712590   -0.712590


           Symmetry 3

           C #1 y      O #2 y

 C #1 y   -0.712590
 O #2 y    0.712590   -0.712590




           C #1 x      C #1 y      C #1 z      O #2 x      O #2 y      O #2 z

 C #1 x   -0.712590
 C #1 y    0.000000   -0.712590
 C #1 z    0.000000    0.000000   48.479885

 O #2 x    0.712590    0.000000    0.000000   -0.712590
 O #2 y    0.000000    0.712590    0.000000    0.000000   -0.712590
 O #2 z    0.000000    0.000000  -48.479885    0.000000    0.000000   48.479885




                           Total dipole moment
                           -------------------

                               au             Debye

                    z      0.09672255      0.24584424

  Conversion factor used: 1 a.u. =   2.54174691 Debye 



                     Total dipole moment derivatives
                     -------------------------------


           Symmetry 1
                              Ez

               C #1 z     0.71482104
               O #2 z    -0.71482104

           Symmetry 2
                              Ex

               C #1 x     0.03936733
               O #2 x    -0.03936733

           Symmetry 3
                              Ey

               C #1 y     0.03936733
               O #2 y    -0.03936733



                       Ex          Ey          Ez

      C #1    x    0.039367    0.000000    0.000000
      C #1    y    0.000000    0.039367    0.000000
      C #1    z    0.000000    0.000000    0.714821

      O #2    x   -0.039367    0.000000    0.000000
      O #2    y    0.000000   -0.039367    0.000000
      O #2    z    0.000000    0.000000   -0.714821

 @CHECKOUT-I, Total execution time (CPU/WALL):      720.01/     120.63 seconds.
--executable xvdint finished with status     0 in      120.81 seconds (walltime).
 --invoking executable--
/nfs/workspaces/public/cfour_mpi/bin/xjoda
  @GTFLGS-I, Hessian will be transformed to curvilinear coordinates.
  @GTFLGS-I, Hessian will be transformed to curvilinear coordinates.
  igrd and ihes are                      0                     1
  gradient from JOBARC 
   0.000000000000000   0.000000000000000   0.636988019310073
   0.000000000000000   0.000000000000000  -0.636988019310073
 
  @PROJFCM-I, Projecting force constant matrix onto totally symmetric subspace.
  Largest difference between matrix elements of symmetrized
  and unsymmetrized FCM :    -0.9099387910E-11.
  read isotopes from ZMAT file 
 
  Summary of diagonal Born-Oppenheimer correction at the correlated level
  The total diagonal Born-Oppenheimer correction (DBOC) is:      0.0038679298 a.u.
  The total diagonal Born-Oppenheimer correction (DBOC) is:        848.912460 cm-1
  The total diagonal Born-Oppenheimer correction (DBOC) is:            10.155 kJ/mole
  hellooooooo 
  readis is  F
 
 @CHECKOUT-I, Total execution time (CPU/WALL):        0.01/       0.08 seconds.
--executable xjoda finished with status     0 in        0.13 seconds (walltime).
  The final electronic energy is      -113.256615645015273 a.u. 
  This computation required                         4465.23 seconds (walltime).
