 --invoking executable--
/nfs/workspaces/public/cfour_mpi/bin/xjoda


   *************************************************************************
         <<<     CCCCCC     CCCCCC   |||     CCCCCC     CCCCCC   >>>
       <<<      CCC        CCC       |||    CCC        CCC         >>>
      <<<      CCC        CCC        |||   CCC        CCC            >>>
    <<<        CCC        CCC        |||   CCC        CCC              >>>
      <<<      CCC        CCC        |||   CCC        CCC            >>>
       <<<      CCC        CCC       |||    CCC        CCC         >>>
         <<<     CCCCCC     CCCCCC   |||     CCCCCC     CCCCCC   >>>
   *************************************************************************

     ****************************************************************
     * CFOUR Coupled-Cluster techniques for Computational Chemistry *
     ****************************************************************
 

   Department of Chemistry                Institut fuer Physikalische Chemie
   University of Florida                  Universitaet Mainz
   Gainesville, FL 32611, USA             D-55099 Mainz, Germany

   Department of Chemistry                Fakultaet fuer Chemie und Biowiss.
   Johns Hopkins University               Karlsruher Institut fuer Technologie
   Baltimore, MD 21218, USA               D-76131 Karlsruhe, Germany

   Department of Chemistry                Department of Physical Chemistry
   Southern Methodist University          Eotvos Lorand University
   Dallas, TX 75275, USA                  H-1053 Budapest, Hungary

 
                       Version 2.1
 
                     vincent.theory.phys.ucl.ac.uk                     
                     Sun  2 Mar 23:39:16 GMT 2025                      
                     integer*8 version is running
 
********************************************************************************
*                          Input from ZMAT file                                *
********************************************************************************
Carbon Monoxide DBOC calculation                                                
C                                                                               
O 1 r                                                                           
                                                                                
r=1.4586206896551723                                                            
                                                                                
                                                                                
*CFOUR(CALC=CCSD,BASIS=AUG-PCVQZ,SCF_CONV=10                                    
CC_CONV=14,DBOC=ON,MEMORY=500000000                                             
ZFIELD=-200)                                                                    
                                                                                
%isotopes                                                                       
12                                                                              
18                                                                              
********************************************************************************
  @GTFLGS-I, Hessian will be transformed to curvilinear coordinates.
    -------------------------------------------------------------------
                    CFOUR Control Parameters 
    -------------------------------------------------------------------
        External           Internal           Value            Units
          Name               Name
    -------------------------------------------------------------------
       ABCDTYPE             IABCDT         STANDARD    [  0]    ***   
       ANHARMONIC           IANHAR         OFF         [  0]    ***   
       ANH_ALGORIT          IANALG         STANDARD    [  0]    ***   
       ANH_DERIVAT          IANDER         SECOND      [  1]    ***   
       ANH_MODE             ANHMOD         VIBRATION   [  0]    ***   
       ANH_STEPSIZ          ICUBST             50000          x 10-6  
       ANH_SYMMETR          IANHSM         ABELIAN     [  0]    ***   
       AO_LADDERS           IAOLAD         SINGLEPASS  [  1]    ***   
       AV_SCF               IAVSCF         OFF         [  0]    ***   
       BASIS                IBASIS         AUG-PCVQZ   [ 52]    ***   
       BOTHVECTORS          BOTHVC         OFF         [  0]    ***   
       BOX_POTENT           IPIAB          OFF         [  0]    ***   
       BREIT                IBREIT         OFF         [  0]    ***   
       BRUCK_CONV           IBRTOL          10D-  4             ***   
       BRUECKNER            IBRKNR         OFF         [  0]    ***   
       BUFFERSIZE           IBUFFS              4096            ***   
       CACHE_RECS           ICHREC             10               ***   
       CALCLEVEL            ICLLVL         CCSD        [ 10]    ***   
       CCORBOPT             ICCORB         OFF         [  0]  x 0.01  
       CC_CONV              ICCCNV          10D- 14             ***   
       CC_EXPORDER          ICCEOR              5               ***   
       CC_EXTRAPOL          ICCEXT         DIIS        [  1]    ***   
       CC_GUESS             ICCGES         MP2         [  0]    ***   
       CC_MAXCYC            ICCCYC            100              cycles 
       CC_PROGRAM           ICCPRO         VCC         [  0]    ***   
       CHARGE               ICHRGE              0               ***   
       CHOLESKY             ICHOLE         OFF         [  0]    ***   
       CIS_CONV             ICISTL              5               ***   
       COMM_SIZE            IPSIZE            ***               ***   
       CONSTANT             ICONST         OLD         [  1]    ***   
       CONTINUUM            ICONTU         NONE        [  0]    ***   
       CONTRACTION          ICNTYP         GENERAL     [  1]    ***   
       COORDINATES          ICOORD         INTERNAL    [  0]    ***   
       CPHF_CONVER          ICPHFT          10D- 16             ***   
       CPHF_MAXCYC          ICPHFC             64              cycles 
       CUBIC                ICUBIC         OFF         [  0]    ***   
       CURVILINEAR          ICURVY         ON          [  1]    ***   
       DBOC                 IDBOC          ON          [  1]    ***   
       DCT                  IDCT           OFF         [  0]    ***   
       DERIV_LEV            IDRLVL         SECOND      [  2]    ***   
       DEVMEM_SIZE          IDVMEM          50000000           MByte  
       DIAG_MRCC            IEOMST          10D-  0             ***   
       DIFF_TYPE            IDIFTY         RELAXED     [  0]    ***   
       DIRECT               IDIRCT         OFF         [  0]    ***   
       DROPMO               IDRPMO      NONE         
       ECP                  IECP           OFF         [  0]    ***   
       EIGENVECTOR          IVEC                1               ***   
       EL_ANHARM            IELANH         OFF         [  0]    ***   
       EOMFOLLOW            IEOMSR         ENERGY      [  0]    ***   
       EOMIP                IEOMIP         OFF         [  0]    ***   
       EOMLEVEL             HBARFM         SAME        [  0]    ***   
       EOM_MRCC             IMRCCE         NEW         [  1]    ***   
       EOM_NONIT            EOMNON         OFF         [  0]    ***   
       EOM_NSING            IEOMSI          10D-  0             ***   
       EOM_NSTATES          IMRCCD         DAVIDSON    [  0]    ***   
       EOM_NTRIP            IEOMTR          10D-  0             ***   
       EOM_ORDER            IEXORD         ENERGY      [  0]    ***   
       EOM_PROPSTA          IEOMST              0               ***   
       ESTATE_CONV          IEXTOL          10D-  5             ***   
       ESTATE_DIAG          IEXDIG         ITERATIVE   [  0]    ***   
       ESTATE_LOCK          IESLOC         ON          [  1]    ***   
       ESTATE_MAXC          IEXMXC             40               ***   
       ESTATE_PROP          IEXPRP         OFF         [  0]    ***   
       EVAL_HESS            IRECAL              0            # of cyc.
       EXCITATION           IEXCIT              0               ***   
       EXCITE               IEXCIT         NONE        [  0]    ***   
       EXTERN_POT           IEXPOT         OFF         [  0]    ***   
       FCGRADNEW            IFCGNW         OFF         [  0]    ***   
       FC_FIELD             IFINFC              0             x 10-6  
       FD_CALTYPE           IFDCAL         GRADONLY    [  0]    ***   
       FD_PROJECT           IFDPRJ         OFF         [  1]    ***   
       FD_STEPSIZE          IDISFD              0            10-4 bohr
       FD_USEGROUP          IFDGRP         FULL        [  0]    ***   
       FILE_RECSIZ          IFLREC              4096           words  
       FINITE_PERT          IFIPER              0             x 10-6  
       FIXGEOM              IFIXGM         OFF         [  0]    ***   
       FOCK                 IFOCK          AO          [  1]    ***   
       FREQ_ALGORI          IVIALG         STANDARD    [  0]    ***   
       FROZEN_CORE          IFROCO         OFF         [  0]    ***   
       GAMMA_ABCD           IGABCD         STORE       [  0]    ***   
       GAMMA_ABCI           IGABCI         STORE       [  0]    ***   
       GENBAS_1             IGNBS1              0               ***   
       GENBAS_2             IGNBS2              0               ***   
       GENBAS_3             IGNBS3              0               ***   
       GENBAS_4             IGNBS4              0               ***   
       GEO_CONV             ICONTL              5              H/bohr 
       GEO_MAXCYC           IOPTCY             50               ***   
       GEO_MAXSTEP          IMXSTP            300            millibohr
       GEO_METHOD           INR            SINGLE_POINT[  5]    ***   
       GIAO                 IGIAO          OFF         [  1]    ***   
       GIMIC                IGIMIC         OFF         [  0]    ***   
       GRID                 IGRID          OFF         [  0]    ***   
       GRID_ALGO            IGALGO         SERIAL      [  0]    ***   
       GUESS                IGUESS         MOREAD      [  0]    ***   
       HBAR                 IHBAR          OFF         [  0]    ***   
       HESS_TYPE            IHESTP         SCF         [  0]    ***   
       HF2_FILE             IHF2Fl         USE         [  1]    ***   
       HFSTABILITY          ISTABL         OFF         [  0]    ***   
       INCORE               INCORE         OFF         [  0]    ***   
       INPUT_MRCC           IMRCC          ON          [  1]    ***   
       INTEGRALS            INTTYP         VMOL        [  1]    ***   
       JODA_PRINT           IJPRNT              0               ***   
       KEYWORD_OUT          IDMPKW         NO          [  0]    ***   
       LINDEP_TOL           ILINDP              8               ***   
       LINEQ_CONV           IZTACN          10D-  7           cycles  
       LINEQ_EXPOR          ILMAXD              5               ***   
       LINEQ_MAXCY          ILMAXC            100               ***   
       LINEQ_TYPE           ILTYPE         DIIS        [  1]    ***   
       LOCK_ORBOCC          ILOCOC         OFF         [  0]    ***   
       MEMORY_SIZE          IMEMSZ         500000000           words  
       MEM_UNIT             IMEMU          INTEGERWORDS[  0]    ***   
       MRCC                 IMRCCC         OFF         [  0]    ***   
       MULTIPLICTY          IMULTP              1               ***   
       NACOUPLING           IVCOUP         OFF         [  0]    ***   
       NEGEVAL              IDIE           ABORT       [  0]    ***   
       NEWNORM              INEWNO         OFF         [  0]    ***   
       NON-HF               INONHF         OFF         [  0]    ***   
       NTOP_TAMP            ITOPT2             15               ***   
       NUC_MODEL            INUCMO         POINT       [  0]    ***   
       OCCUPATION           IOCCU   ESTIMATED BY SCF 
       OPEN-SHELL           IOPEN          SPIN-ORBITAL[  0]    ***   
       OPTVIB               IOPTVB         OFF         [  0]    ***   
       ORBITALS             IORBTP         STANDARD    [  0]    ***   
       PARALLEL             IPARAL         ON          [  1]    ***   
       PARA_INT             IPINTS         ON          [  1]    ***   
       PARA_PRINT           IPPRIN              0               ***   
       PERT_ORB             IPTORB         STANDARD    [  0]    ***   
       POINTS               IGRDFD              0               ***   
       PRINT                IPRNT               0               ***   
       PROPS                IPROPS         OFF         [  0]    ***   
       PROP_INTEGR          IINTYP         INTERNAL    [  0]    ***   
       PSI                  IPSI           OFF         [  0]    ***   
       QC_ALG               IQCALG         FLM         [  0]    ***   
       QC_LINALG            IQCLIN         TRIDIAG     [  2]    ***   
       QC_MAXCYC            IQCMAX          10D-100           cycles  
       QC_MAXSCFCY          IQCMSC          10D- 15           cycles  
       QC_RTRUST            IQCRTR          10D-  0           x 10-3  
       QC_SKIPSCF           IQCSKI         OFF         [  0]    ***   
       QC_START             IQCSTA          10D-  1             ***   
       QRHFGUESS            IQGUES         OFF         [  0]    ***   
       QUARTIC              IQUART         OFF         [  0]    ***   
       RAMAN_INT            IRAMIN         OFF         [  0]    ***   
       RAMAN_ORB            IRAMRE         UNRELAXED   [  0]    ***   
       RDO                  IRDOFM         ON          [  1]    ***   
       REDUCE_REPR          REDREP         Ir          [  0]    ***   
       REFERENCE            IREFNC         RHF         [  0]    ***   
       RELATIVIST           IRELAT         OFF         [  0]    ***   
       RELAX_DENS           IRDENS         ON          [  1]    ***   
       RESET_FLAGS          IRESET         OFF         [  0]    ***   
       RESTART_CC           ICCRES         OFF         [  0]    ***   
       ROT_EVEC             ROTVEC              0               ***   
       SAVE_INTS            ISVINT         OFF         [  0]    ***   
       SCALE_ON             ISTCRT              0               ***   
       SCF_CONV             ISCFCV          10D- 10             ***   
       SCF_DAMPING          IDAMP               0             x 10-3  
       SCF_EXPORDE          IRPPOR              6               ***   
       SCF_EXPSTAR          IRPPLS              8               ***   
       SCF_EXTRAPO          IRPP           ON          [  1]    ***   
       SCF_MAXCYC           ISCFCY            150              cycles 
       SCF_NOSTOP           ISCFST         OFF         [  0]    ***   
       SCF_PRINT            ISCFPR              0               ***   
       SCF_PROG             ISCFPR         SCF         [  0]    ***   
       SD_FIELD             IFINSD              0             x 10-6  
       SOPERT               IPERSO         OFF         [  0]    ***   
       SPHERICAL            IDFGHI         ON          [  1]    ***   
       SPINORBIT            ISOCAL         OFF         [  0]    ***   
       SPINROTATIO          ISRCON         OFF         [  0]    ***   
       SPIN_FLIP            ISPFLP         OFF         [  0]    ***   
       SPIN_ORBIT           ISPORB         OFF         [  0]    ***   
       SPIN_SCAL            ISCSMP         OFF         [  0]    ***   
       STEEPSCALE           ISTPSC              1000          x 10-3  
       SUBGROUP             ISUBGP         DEFAULT     [  0]    ***   
       SUBGRPAXIS           ISBXYZ         X           [  0]    ***   
       SYMMETRY             ISYM           ON          [  0]    ***   
       SYM_CHECK            ISYMCK         OVERRIDE    [  1]    ***   
       T3_EXTRAPOL          IT3EXT         OFF         [  0]    ***   
       T4_EXTRAPOL          IT4EXP         OFF         [  0]    ***   
       TAMP_SUM             IEVERY              5               ***   
       TESTSUITE            ITESTS         OFF         [  0]    ***   
       THERMOCH             ITHERM         OFF         [  0]    ***   
       TOL_CHOLESK          ITOLCH          10D-  4             ***   
       TRANGRAD             IRESRM         OFF         [  0]    ***   
       TRANS_INV            ITRAIN         IGNORE      [  1]    ***   
       TREAT_PERT           ITREAT         SIMULTANEOUS[  0]    ***   
       TRIP_ALGORI          ITRALG         NORMAL      [  0]    ***   
       UIJ_THRESHO          IUIJTH              1               ***   
       UNITS                IUNITS         ANGSTROM    [  0]    ***   
       UNOS                 IUNOS          OFF         [  0]    ***   
       UPDATE_HESS          IHUPDT         ON          [  1]    ***   
       VIBPHASE             ISETPH         STANDARD    [  0]    ***   
       VIBRATION            IVIB           ANALYTIC    [  1]    ***   
       VIB_ALGORIT          IGEALG         STANDARD    [  0]    ***   
       VNATORB              IVNORB         OFF         [  0]    ***   
       VTRAN                IVTRAN         FULL/PARTIAL[  0]    ***   
       XFIELD               IXEFLD              0             x 10-6  
       XFORM_TOL            IXFTOL          10D- 11             ***   
       YFIELD               IYEFLD              0             x 10-6  
       ZFIELD               IZEFLD            ***             x 10-6  
       ZSCALE_EXP           IZEXPS         OFF         [  0]    ***   
    -------------------------------------------------------------------
   2 entries found in Z-matrix 
   Job Title : Carbon Monoxide DBOC calculation                                                
   There are  1 unique internal coordinates.
   Of these,  0 will be optimized.
   User supplied Z-matrix: 
--------------------------------------------------------------------------------
       SYMBOL    BOND      LENGTH    ANGLE     ANGLE     DIHED     ANGLE
                  TO      (ANGST)    WRT      (DEG)      WRT      (DEG)
--------------------------------------------------------------------------------
        C    
        O          1         r    
                  *Initial values for internal coordinates* 
                      Name             Value
                        r               1.4586206897
--------------------------------------------------------------------------------
  read isotopes from ZMAT file 
   Rotational constants (in cm-1): 
          1.1004933537             1.1004933537
   Rotational constants (in MHz): 
      32991.9653732178         32991.9653732178
********************************************************************************
   The full molecular point group is CXv .
   The largest Abelian subgroup of the full molecular point group is C2v .
   The computational point group is C2v .
********************************************************************************
--------------------------------------------------------------------------------
   Analysis of internal coordinates specified by Z-matrix 
--------------------------------------------------------------------------------
   *The nuclear repulsion energy is   17.414054921985816 a.u.
   *There is   1 degree of freedom within the tot. symm. molecular subspace.
   *Z-matrix requests optimization of   0 coordinates.
   *The optimization is constrained.
   *The following   1 parameters can have non-zero 
    derivatives within the totally symmetric subspace:
             r    [ 1]
   *The following   0 parameters are to be optimized:

   *The following coordinates must be varied in an  unconstrained optimization.
             r    [ 1]
--------------------------------------------------------------------------------


 ----------------------------------------------------------------
         Coordinates used in calculation (QCOMP) 
 ----------------------------------------------------------------
 Z-matrix   Atomic            Coordinates (in bohr)
  Symbol    Number           X              Y              Z
 ----------------------------------------------------------------
     C         6        -0.00000000     0.00000000     1.65380566
     O         8         0.00000000     0.00000000    -1.10258854
 ----------------------------------------------------------------
 
   Interatomic distance matrix (Angstroms) 
 
                 C             O    
                [ 1]        [ 2]
  C    [ 1]     0.00000
  O    [ 2]     1.45862     0.00000
 rotcon2
   Rotational constants (in cm-1): 
          1.1004933537             0.0000000000
   Rotational constants (in MHz): 
      32991.9653732178             0.0000000000
  ECPDATA file not present.   Using default ECPDATA. 
  @GTFLGS-I, Hessian will be transformed to curvilinear coordinates.
  There are  218 basis functions.
 @CHECKOUT-I, Total execution time (CPU/WALL):        0.20/       0.28 seconds.
--executable xjoda finished with status     0 in        0.32 seconds (walltime).
 --invoking executable--
/nfs/workspaces/public/cfour_mpi/bin/xvmol
 SERIAL VERSION OF MOLECULE STARTED
********************************************************************************
                    INPUT FROM MOL FILE
********************************************************************************
INTGRL        1    0    1    0    0    0    0    0    0                         
         *** CFOUR Program System (Release V0.1) ***                            
Carbon Monoxide DBOC calculation                                                
    2    2 X  Y       0.10E-08              0    0                              
   9999.00      3.00                                                            
          6.00000000    1    5    1    1    1    1    1                         
C #1  -0.000000000000000   0.000000000000000   1.653805659048270                
   16    9                                                                      
   33980.0000000000       9.100000000000000E-005 -1.900000000000000E-005        
  0.000000000000000E+000  0.000000000000000E+000  0.000000000000000E+000        
  0.000000000000000E+000  0.000000000000000E+000  0.000000000000000E+000        
  0.000000000000000E+000                                                        
   5089.00000000000       7.040000000000000E-004 -1.510000000000000E-004        
  0.000000000000000E+000  0.000000000000000E+000  0.000000000000000E+000        
  0.000000000000000E+000  0.000000000000000E+000  0.000000000000000E+000        
  0.000000000000000E+000                                                        
   1157.00000000000       3.693000000000000E-003 -7.850000000000000E-004        
  0.000000000000000E+000  0.000000000000000E+000  0.000000000000000E+000        
  0.000000000000000E+000  0.000000000000000E+000  0.000000000000000E+000        
  0.000000000000000E+000                                                        
   326.600000000000       1.536000000000000E-002 -3.324000000000000E-003        
  0.000000000000000E+000  0.000000000000000E+000  0.000000000000000E+000        
  0.000000000000000E+000  0.000000000000000E+000  0.000000000000000E+000        
  0.000000000000000E+000                                                        
   106.100000000000       5.292900000000000E-002 -1.151200000000000E-002        
  0.000000000000000E+000  0.000000000000000E+000  0.000000000000000E+000        
  0.000000000000000E+000  0.000000000000000E+000  0.000000000000000E+000        
  0.000000000000000E+000                                                        
   38.1100000000000       0.147043000000000      -3.416000000000000E-002        
  0.000000000000000E+000  0.000000000000000E+000  0.000000000000000E+000        
  0.000000000000000E+000  0.000000000000000E+000  0.000000000000000E+000        
  0.000000000000000E+000                                                        
   14.7500000000000       0.305631000000000      -7.717300000000001E-002        
  0.000000000000000E+000  0.000000000000000E+000  0.000000000000000E+000        
  0.000000000000000E+000  0.000000000000000E+000  0.000000000000000E+000        
  0.000000000000000E+000                                                        
   6.03500000000000       0.399345000000000      -0.141493000000000             
  0.000000000000000E+000  0.000000000000000E+000  0.000000000000000E+000        
  0.000000000000000E+000  0.000000000000000E+000  0.000000000000000E+000        
  0.000000000000000E+000                                                        
   2.53000000000000       0.217051000000000      -0.118019000000000             
  0.000000000000000E+000  0.000000000000000E+000  0.000000000000000E+000        
  0.000000000000000E+000  0.000000000000000E+000  0.000000000000000E+000        
  0.000000000000000E+000                                                        
  0.735500000000000       1.589400000000000E-002  0.273806000000000             
   1.00000000000000       0.000000000000000E+000  0.000000000000000E+000        
  0.000000000000000E+000  0.000000000000000E+000  0.000000000000000E+000        
  0.000000000000000E+000                                                        
  0.290500000000000      -3.084000000000000E-003  0.586510000000000             
  0.000000000000000E+000   1.00000000000000       0.000000000000000E+000        
  0.000000000000000E+000  0.000000000000000E+000  0.000000000000000E+000        
  0.000000000000000E+000                                                        
  0.111100000000000       9.779999999999999E-004  0.285430000000000             
  0.000000000000000E+000  0.000000000000000E+000   1.00000000000000             
  0.000000000000000E+000  0.000000000000000E+000  0.000000000000000E+000        
  0.000000000000000E+000                                                        
   7.21600000000000       0.000000000000000E+000  0.000000000000000E+000        
  0.000000000000000E+000  0.000000000000000E+000  0.000000000000000E+000        
   1.00000000000000       0.000000000000000E+000  0.000000000000000E+000        
  0.000000000000000E+000                                                        
   19.5700000000000       0.000000000000000E+000  0.000000000000000E+000        
  0.000000000000000E+000  0.000000000000000E+000  0.000000000000000E+000        
  0.000000000000000E+000   1.00000000000000       0.000000000000000E+000        
  0.000000000000000E+000                                                        
   53.0730000000000       0.000000000000000E+000  0.000000000000000E+000        
  0.000000000000000E+000  0.000000000000000E+000  0.000000000000000E+000        
  0.000000000000000E+000  0.000000000000000E+000   1.00000000000000             
  0.000000000000000E+000                                                        
  4.145000000000000E-002  0.000000000000000E+000  0.000000000000000E+000        
  0.000000000000000E+000  0.000000000000000E+000  0.000000000000000E+000        
  0.000000000000000E+000  0.000000000000000E+000  0.000000000000000E+000        
   1.00000000000000                                                             
   10    8                                                                      
   34.5100000000000       5.378000000000000E-003  0.000000000000000E+000        
  0.000000000000000E+000  0.000000000000000E+000  0.000000000000000E+000        
  0.000000000000000E+000  0.000000000000000E+000  0.000000000000000E+000        
   7.91500000000000       3.613200000000000E-002  0.000000000000000E+000        
  0.000000000000000E+000  0.000000000000000E+000  0.000000000000000E+000        
  0.000000000000000E+000  0.000000000000000E+000  0.000000000000000E+000        
   2.36800000000000       0.142493000000000       0.000000000000000E+000        
  0.000000000000000E+000  0.000000000000000E+000  0.000000000000000E+000        
  0.000000000000000E+000  0.000000000000000E+000  0.000000000000000E+000        
  0.813200000000000       0.342150000000000        1.00000000000000             
  0.000000000000000E+000  0.000000000000000E+000  0.000000000000000E+000        
  0.000000000000000E+000  0.000000000000000E+000  0.000000000000000E+000        
  0.289000000000000       0.463864000000000       0.000000000000000E+000        
   1.00000000000000       0.000000000000000E+000  0.000000000000000E+000        
  0.000000000000000E+000  0.000000000000000E+000  0.000000000000000E+000        
  0.100700000000000       0.250028000000000       0.000000000000000E+000        
  0.000000000000000E+000   1.00000000000000       0.000000000000000E+000        
  0.000000000000000E+000  0.000000000000000E+000  0.000000000000000E+000        
   8.18200000000000       0.000000000000000E+000  0.000000000000000E+000        
  0.000000000000000E+000  0.000000000000000E+000   1.00000000000000             
  0.000000000000000E+000  0.000000000000000E+000  0.000000000000000E+000        
   24.1860000000000       0.000000000000000E+000  0.000000000000000E+000        
  0.000000000000000E+000  0.000000000000000E+000  0.000000000000000E+000        
   1.00000000000000       0.000000000000000E+000  0.000000000000000E+000        
   71.4940000000000       0.000000000000000E+000  0.000000000000000E+000        
  0.000000000000000E+000  0.000000000000000E+000  0.000000000000000E+000        
  0.000000000000000E+000   1.00000000000000       0.000000000000000E+000        
  3.218000000000000E-002  0.000000000000000E+000  0.000000000000000E+000        
  0.000000000000000E+000  0.000000000000000E+000  0.000000000000000E+000        
  0.000000000000000E+000  0.000000000000000E+000   1.00000000000000             
    6    6                                                                      
   1.84800000000000        1.00000000000000       0.000000000000000E+000        
  0.000000000000000E+000  0.000000000000000E+000  0.000000000000000E+000        
  0.000000000000000E+000                                                        
  0.649000000000000       0.000000000000000E+000   1.00000000000000             
  0.000000000000000E+000  0.000000000000000E+000  0.000000000000000E+000        
  0.000000000000000E+000                                                        
  0.228000000000000       0.000000000000000E+000  0.000000000000000E+000        
   1.00000000000000       0.000000000000000E+000  0.000000000000000E+000        
  0.000000000000000E+000                                                        
   8.65600000000000       0.000000000000000E+000  0.000000000000000E+000        
  0.000000000000000E+000   1.00000000000000       0.000000000000000E+000        
  0.000000000000000E+000                                                        
   33.2130000000000       0.000000000000000E+000  0.000000000000000E+000        
  0.000000000000000E+000  0.000000000000000E+000   1.00000000000000             
  0.000000000000000E+000                                                        
  7.660000000000000E-002  0.000000000000000E+000  0.000000000000000E+000        
  0.000000000000000E+000  0.000000000000000E+000  0.000000000000000E+000        
   1.00000000000000                                                             
    4    4                                                                      
   1.41900000000000        1.00000000000000       0.000000000000000E+000        
  0.000000000000000E+000  0.000000000000000E+000                                
  0.485000000000000       0.000000000000000E+000   1.00000000000000             
  0.000000000000000E+000  0.000000000000000E+000                                
   24.6940000000000       0.000000000000000E+000  0.000000000000000E+000        
   1.00000000000000       0.000000000000000E+000                                
  0.187000000000000       0.000000000000000E+000  0.000000000000000E+000        
  0.000000000000000E+000   1.00000000000000                                     
    2    2                                                                      
   1.01100000000000        1.00000000000000       0.000000000000000E+000        
  0.424000000000000       0.000000000000000E+000   1.00000000000000             
          8.00000000    1    5    1    1    1    1    1                         
O #2   0.000000000000000   0.000000000000000  -1.102588541787655                
   16    9                                                                      
   61420.0000000000       9.000000000000001E-005 -2.000000000000000E-005        
  0.000000000000000E+000  0.000000000000000E+000  0.000000000000000E+000        
  0.000000000000000E+000  0.000000000000000E+000  0.000000000000000E+000        
  0.000000000000000E+000                                                        
   9199.00000000000       6.980000000000001E-004 -1.590000000000000E-004        
  0.000000000000000E+000  0.000000000000000E+000  0.000000000000000E+000        
  0.000000000000000E+000  0.000000000000000E+000  0.000000000000000E+000        
  0.000000000000000E+000                                                        
   2091.00000000000       3.664000000000000E-003 -8.290000000000000E-004        
  0.000000000000000E+000  0.000000000000000E+000  0.000000000000000E+000        
  0.000000000000000E+000  0.000000000000000E+000  0.000000000000000E+000        
  0.000000000000000E+000                                                        
   590.900000000000       1.521800000000000E-002 -3.508000000000000E-003        
  0.000000000000000E+000  0.000000000000000E+000  0.000000000000000E+000        
  0.000000000000000E+000  0.000000000000000E+000  0.000000000000000E+000        
  0.000000000000000E+000                                                        
   192.300000000000       5.242300000000000E-002 -1.215600000000000E-002        
  0.000000000000000E+000  0.000000000000000E+000  0.000000000000000E+000        
  0.000000000000000E+000  0.000000000000000E+000  0.000000000000000E+000        
  0.000000000000000E+000                                                        
   69.3200000000000       0.145921000000000      -3.626100000000000E-002        
  0.000000000000000E+000  0.000000000000000E+000  0.000000000000000E+000        
  0.000000000000000E+000  0.000000000000000E+000  0.000000000000000E+000        
  0.000000000000000E+000                                                        
   26.9700000000000       0.305258000000000      -8.299200000000000E-002        
  0.000000000000000E+000  0.000000000000000E+000  0.000000000000000E+000        
  0.000000000000000E+000  0.000000000000000E+000  0.000000000000000E+000        
  0.000000000000000E+000                                                        
   11.1000000000000       0.398508000000000      -0.152090000000000             
  0.000000000000000E+000  0.000000000000000E+000  0.000000000000000E+000        
  0.000000000000000E+000  0.000000000000000E+000  0.000000000000000E+000        
  0.000000000000000E+000                                                        
   4.68200000000000       0.216980000000000      -0.115331000000000             
  0.000000000000000E+000  0.000000000000000E+000  0.000000000000000E+000        
  0.000000000000000E+000  0.000000000000000E+000  0.000000000000000E+000        
  0.000000000000000E+000                                                        
   1.42800000000000       1.759400000000000E-002  0.288979000000000             
   1.00000000000000       0.000000000000000E+000  0.000000000000000E+000        
  0.000000000000000E+000  0.000000000000000E+000  0.000000000000000E+000        
  0.000000000000000E+000                                                        
  0.554700000000000      -2.502000000000000E-003  0.586128000000000             
  0.000000000000000E+000   1.00000000000000       0.000000000000000E+000        
  0.000000000000000E+000  0.000000000000000E+000  0.000000000000000E+000        
  0.000000000000000E+000                                                        
  0.206700000000000       9.540000000000000E-004  0.277624000000000             
  0.000000000000000E+000  0.000000000000000E+000   1.00000000000000             
  0.000000000000000E+000  0.000000000000000E+000  0.000000000000000E+000        
  0.000000000000000E+000                                                        
   12.9740000000000       0.000000000000000E+000  0.000000000000000E+000        
  0.000000000000000E+000  0.000000000000000E+000  0.000000000000000E+000        
   1.00000000000000       0.000000000000000E+000  0.000000000000000E+000        
  0.000000000000000E+000                                                        
   34.9000000000000       0.000000000000000E+000  0.000000000000000E+000        
  0.000000000000000E+000  0.000000000000000E+000  0.000000000000000E+000        
  0.000000000000000E+000   1.00000000000000       0.000000000000000E+000        
  0.000000000000000E+000                                                        
   93.8810000000000       0.000000000000000E+000  0.000000000000000E+000        
  0.000000000000000E+000  0.000000000000000E+000  0.000000000000000E+000        
  0.000000000000000E+000  0.000000000000000E+000   1.00000000000000             
  0.000000000000000E+000                                                        
  6.959000000000000E-002  0.000000000000000E+000  0.000000000000000E+000        
  0.000000000000000E+000  0.000000000000000E+000  0.000000000000000E+000        
  0.000000000000000E+000  0.000000000000000E+000  0.000000000000000E+000        
   1.00000000000000                                                             
   10    8                                                                      
   63.4200000000000       6.044000000000000E-003  0.000000000000000E+000        
  0.000000000000000E+000  0.000000000000000E+000  0.000000000000000E+000        
  0.000000000000000E+000  0.000000000000000E+000  0.000000000000000E+000        
   14.6600000000000       4.179900000000000E-002  0.000000000000000E+000        
  0.000000000000000E+000  0.000000000000000E+000  0.000000000000000E+000        
  0.000000000000000E+000  0.000000000000000E+000  0.000000000000000E+000        
   4.45900000000000       0.161143000000000       0.000000000000000E+000        
  0.000000000000000E+000  0.000000000000000E+000  0.000000000000000E+000        
  0.000000000000000E+000  0.000000000000000E+000  0.000000000000000E+000        
   1.53100000000000       0.356731000000000        1.00000000000000             
  0.000000000000000E+000  0.000000000000000E+000  0.000000000000000E+000        
  0.000000000000000E+000  0.000000000000000E+000  0.000000000000000E+000        
  0.530200000000000       0.448309000000000       0.000000000000000E+000        
   1.00000000000000       0.000000000000000E+000  0.000000000000000E+000        
  0.000000000000000E+000  0.000000000000000E+000  0.000000000000000E+000        
  0.175000000000000       0.244940000000000       0.000000000000000E+000        
  0.000000000000000E+000   1.00000000000000       0.000000000000000E+000        
  0.000000000000000E+000  0.000000000000000E+000  0.000000000000000E+000        
   14.4750000000000       0.000000000000000E+000  0.000000000000000E+000        
  0.000000000000000E+000  0.000000000000000E+000   1.00000000000000             
  0.000000000000000E+000  0.000000000000000E+000  0.000000000000000E+000        
   42.7300000000000       0.000000000000000E+000  0.000000000000000E+000        
  0.000000000000000E+000  0.000000000000000E+000  0.000000000000000E+000        
   1.00000000000000       0.000000000000000E+000  0.000000000000000E+000        
   126.140000000000       0.000000000000000E+000  0.000000000000000E+000        
  0.000000000000000E+000  0.000000000000000E+000  0.000000000000000E+000        
  0.000000000000000E+000   1.00000000000000       0.000000000000000E+000        
  5.348000000000000E-002  0.000000000000000E+000  0.000000000000000E+000        
  0.000000000000000E+000  0.000000000000000E+000  0.000000000000000E+000        
  0.000000000000000E+000  0.000000000000000E+000   1.00000000000000             
    6    6                                                                      
   3.77500000000000        1.00000000000000       0.000000000000000E+000        
  0.000000000000000E+000  0.000000000000000E+000  0.000000000000000E+000        
  0.000000000000000E+000                                                        
   1.30000000000000       0.000000000000000E+000   1.00000000000000             
  0.000000000000000E+000  0.000000000000000E+000  0.000000000000000E+000        
  0.000000000000000E+000                                                        
  0.444000000000000       0.000000000000000E+000  0.000000000000000E+000        
   1.00000000000000       0.000000000000000E+000  0.000000000000000E+000        
  0.000000000000000E+000                                                        
   14.9270000000000       0.000000000000000E+000  0.000000000000000E+000        
  0.000000000000000E+000   1.00000000000000       0.000000000000000E+000        
  0.000000000000000E+000                                                        
   57.5440000000000       0.000000000000000E+000  0.000000000000000E+000        
  0.000000000000000E+000  0.000000000000000E+000   1.00000000000000             
  0.000000000000000E+000                                                        
  0.154000000000000       0.000000000000000E+000  0.000000000000000E+000        
  0.000000000000000E+000  0.000000000000000E+000  0.000000000000000E+000        
   1.00000000000000                                                             
    4    4                                                                      
   2.66600000000000        1.00000000000000       0.000000000000000E+000        
  0.000000000000000E+000  0.000000000000000E+000                                
  0.859000000000000       0.000000000000000E+000   1.00000000000000             
  0.000000000000000E+000  0.000000000000000E+000                                
   26.4830000000000       0.000000000000000E+000  0.000000000000000E+000        
   1.00000000000000       0.000000000000000E+000                                
  0.324000000000000       0.000000000000000E+000  0.000000000000000E+000        
  0.000000000000000E+000   1.00000000000000                                     
    2    2                                                                      
   1.84600000000000        1.00000000000000       0.000000000000000E+000        
  0.714000000000000       0.000000000000000E+000   1.00000000000000             
FINISH                                                                          
 
********************************************************************************
 ONE- AND TWO-ELECTRON INTEGRALS OVER SYMMETRY-ADAPTED AOS ARE CALCULATED.

  SPHERICAL HARMONICS ARE USED.
  
  INTEGRALS LESS THAN  0.10E-13 ARE NEGLECTED.

  NUCLEAR REPULSION ENERGY :   17.4140549220 A.U.
  @MOLECU-I, ONE ELECTRON INTEGRALS (CPU/WALL):        0.06/       0.07 SECONDS.
  @TWOEL-I,    4481996 INTEGRALS OF SYMMETRY TYPE  I I I I
  @TWOEL-I,   19326505 INTEGRALS OF SYMMETRY TYPE  I J I J
  @TWOEL-I,   10176632 INTEGRALS OF SYMMETRY TYPE  I I J J
  @TWOEL-I,   14299420 INTEGRALS OF SYMMETRY TYPE  I J K L
  @TWOEL-I, TOTAL NUMBER OF 2-E INTEGRALS   48284553.
  @MOLECU-I, TWO ELECTRON INTEGRALS (CPU/WALL):      242.74/      32.85 SECONDS.
 @CHECKOUT-I, Total execution time (CPU/WALL):      242.81/      32.95 seconds.

Running with 14 threads/proc

--executable xvmol finished with status     0 in       33.02 seconds (walltime).
 --invoking executable--
/nfs/workspaces/public/cfour_mpi/bin/xvmol2ja
 @GETMEM-I,  Allocated    3814 MB of main memory.
 @CHECKOUT-I, Total execution time (CPU/WALL):        0.19/       0.07 seconds.
--executable xvmol2ja finished with status     0 in        0.11 seconds (walltime).
 --invoking executable--
/nfs/workspaces/public/cfour_mpi/bin/xvprop
 @GETMEM-I,  Allocated    3814 MB of main memory.
   Property integrals will be calculated.
    --------------------------------------------------------------
                                   Property evaluated at 
    Property type                X             Y             Z
    --------------------------------------------------------------
    Dipole moment               ----          ----          ----  
    Quadrupole moment           ----          ----          ----  
    Octopole moment             ----          ----          ----  
    Relativisitic corr.         ----          ----          ----  
    Second moment            0.0000000     0.0000000     0.0000000
    Electron density         0.0000000     0.0000000     1.6538057
    Electron density         0.0000000     0.0000000    -1.1025885
    Field gradient           0.0000000     0.0000000     1.6538057
    Field gradient           0.0000000     0.0000000    -1.1025885
    Potential                0.0000000     0.0000000     1.6538057
    Potential                0.0000000     0.0000000    -1.1025885
    --------------------------------------------------------------
 @CHECKOUT-I, Total execution time (CPU/WALL):        1.33/       1.36 seconds.
--executable xvprop finished with status     0 in        1.43 seconds (walltime).
 --invoking executable--
/nfs/workspaces/public/cfour_mpi/bin/xvscf
  There are  218 functions in the AO basis.

  There are 4 irreducible representations.

       Irrep        # of functions
         1                 86
         2                 52
         3                 52
         4                 28


  Parameters for SCF calculation: 
        SCF reference function:  RHF  
  Maximum number of iterations:  150
     Full symmetry point group: CXv 
     Computational point group: C2v 
        Initial density matrix: MOREAD                 
     SCF convergence tolerance: 10**(-10)
  DIIS convergence acceleration:  ON
          Latest start for DIIS:   8
                     DIIS order:   6

  Memory information:    2523578 words required.
  Fock matrices are constructed from AO integral file.
 @GETMEM-I,  Allocated      19 MB of main memory.
  Initialization and symmetry analysis required      0.002 seconds.

  Adding electric field perturbation to one-electron Hamiltonian.
  Field direction     : Z
  Field strength      : -0.0002000 a.u.

  @INITGES-I, Occupancies from core Hamiltonian:

          Alpha population by irrep:   5    1    1    0
           Beta population by irrep:   5    1    1    0


 total no. of electrons in initial guess :  0.000000000000000E+000
  --------------------------------------------------------------------
  Iteration         Total Energy            Largest Density Difference
  --------------------------------------------------------------------
       0            17.414275347109257              0.0000000000D+00
   current occupation vector 
     5  1  1  0
     5  1  1  0
       1           -93.327545173310597              0.1752057506D+02
   current occupation vector 
     5  1  1  0
     5  1  1  0
       2           -98.307171590272347              0.1752053853D+02
   current occupation vector 
     5  1  1  0
     5  1  1  0
       3          -102.744036904022195              0.6230058491D+01
   current occupation vector 
     5  1  1  0
     5  1  1  0
       4           -97.780478633901510              0.6222894666D+01
   current occupation vector 
     5  1  1  0
     5  1  1  0
       5          -100.945280110325882              0.6641218423D+01
   current occupation vector 
     5  1  1  0
     5  1  1  0
       6           -96.339950763258528              0.6636004227D+01
   current occupation vector 
     5  1  1  0
     5  1  1  0
       7          -100.902674700377943              0.6743550052D+01
   current occupation vector 
     5  1  1  0
     5  1  1  0
       8           -96.277360880194337              0.6743789037D+01
   current occupation vector 
     5  1  1  0
     5  1  1  0
       9          -107.641143660897583              0.5296309810D+01
   current occupation vector 
     5  1  1  0
     5  1  1  0
      10          -109.449776562919368              0.9032175774D+00
   current occupation vector 
     5  1  1  0
     5  1  1  0
      11          -112.306431559372072              0.1603726043D+01
   current occupation vector 
     5  1  1  0
     5  1  1  0
      12          -112.616949185676020              0.5284405769D+00
   current occupation vector 
     5  1  1  0
     5  1  1  0
      13          -112.620953212399712              0.1127655498D+00
   current occupation vector 
     5  1  1  0
     5  1  1  0
      14          -112.621976630655354              0.4772364998D-01
   current occupation vector 
     5  1  1  0
     5  1  1  0
      15          -112.622049921365999              0.1438679485D-01
   current occupation vector 
     5  1  1  0
     5  1  1  0
      16          -112.622067544181107              0.7398441388D-02
   current occupation vector 
     5  1  1  0
     5  1  1  0
      17          -112.622072090928128              0.5118599634D-02
   current occupation vector 
     5  1  1  0
     5  1  1  0
      18          -112.622072241853118              0.9277525223D-03
   current occupation vector 
     5  1  1  0
     5  1  1  0
      19          -112.622072243516641              0.1175796400D-03
   current occupation vector 
     5  1  1  0
     5  1  1  0
      20          -112.622072243665116              0.1903772924D-04
   current occupation vector 
     5  1  1  0
     5  1  1  0
      21          -112.622072243667589              0.1805031779D-05
   current occupation vector 
     5  1  1  0
     5  1  1  0
      22          -112.622072243668384              0.2445366719D-06
   current occupation vector 
     5  1  1  0
     5  1  1  0
      23          -112.622072243667475              0.3648313984D-07
   current occupation vector 
     5  1  1  0
     5  1  1  0
      24          -112.622072243667617              0.8534686513D-08
   current occupation vector 
     5  1  1  0
     5  1  1  0
      25          -112.622072243665656              0.1674896666D-08
   current occupation vector 
     5  1  1  0
     5  1  1  0
      26          -112.622072243667589              0.4801479214D-09
   current occupation vector 
     5  1  1  0
     5  1  1  0
      27          -112.622072243667532              0.2974274160D-09
   current occupation vector 
     5  1  1  0
     5  1  1  0
      28          -112.622072243668214              0.1266791116D-09
   current occupation vector 
     5  1  1  0
     5  1  1  0

  SCF has converged.

 Density matrix saved to file den.dat
 total electron number:   14.0000000000001     
     E(SCF)=      -112.622072243668185              0.5361822097D-10

  Eigenvector printing suppressed.

 @PUTMOS-I, Writing converged MOs to NEWMOS. 
 @PUTMOS-I, Symmetry   1 Full Blocks 21 Partial Blocksize   2
 @PUTMOS-I, Symmetry   2 Full Blocks 13 Partial Blocksize   0
 @PUTMOS-I, Symmetry   3 Full Blocks 13 Partial Blocksize   0
 @PUTMOS-I, Symmetry   4 Full Blocks  7 Partial Blocksize   0
 @PUTFOCK-I, Writing converged Fock matrix to NEWFOCK. 
 @PUTFOCK-I, Symmetry   1 Full Blocks 21 Partial Blocksize   2
 @PUTFOCK-I, Symmetry   2 Full Blocks 13 Partial Blocksize   0
 @PUTFOCK-I, Symmetry   3 Full Blocks 13 Partial Blocksize   0
 @PUTFOCK-I, Symmetry   4 Full Blocks  7 Partial Blocksize   0


 
  ORBITAL EIGENVALUES (ALPHA)  (1H = 27.2113834 eV)

       MO #        E(hartree)               E(eV)           FULLSYM    COMPSYM
       ----   --------------------   --------------------   -------   ---------
    1     1         -20.6576220783        -562.1224745050     SG+        A1 (1)
    2     2         -11.4873851308        -312.5876410565     SG+        A1 (1)
    3     3          -1.3326421954         -36.2630377152     SG+        A1 (1)
    4     4          -0.7956773732         -21.6514820643     SG+        A1 (1)
    5     5          -0.5555331069         -15.1168243642     SG+        A1 (1)
    6   139          -0.5282560286         -14.3745773279      PI        B2 (3)
    7    87          -0.5282560286         -14.3745773279      PI        B1 (2)
  +++++++++++++++++++++++++++++++++++++++++++++++++++++++++++++++++++++++++++++
    8    88           0.0205573164           0.5593930185      PI        B1 (2)
    9   140           0.0205573164           0.5593930185      PI        B2 (3)
   10     6           0.0625804608           1.7029009133     SG+        A1 (1)
   11     7           0.0683572377           1.8600950044     SG+        A1 (1)
   12    89           0.0858721498           2.3366999916      PI        B1 (2)
   13   141           0.0858721498           2.3366999916      PI        B2 (3)
   14     8           0.1573884950           4.2827586806     SG+        A1 (1)
   15    90           0.1750056277           4.7621452329      PI        B1 (2)
   16   142           0.1750056277           4.7621452329      PI        B2 (3)
   17     9           0.2204596767           5.9990127881     SG+        A1 (1)
   18   191           0.2241591984           6.0996818910      DE        A2 (4)
   19    10           0.2241591984           6.0996818910      DE        A1 (1)
   20   143           0.2928062179           7.9676622569      PI        B2 (3)
   21    91           0.2928062179           7.9676622569      PI        B1 (2)
   22    11           0.2996338813           8.1534524239     SG+        A1 (1)
   23    12           0.3538881779           9.6297868888     SG+        A1 (1)
   24    92           0.4005414952          10.8992881933      PI        B1 (2)
   25   144           0.4005414952          10.8992881933      PI        B2 (3)
   26    13           0.4590659123          12.4918185447     SG+        A1 (1)
   27    14           0.5120699623          13.9341320730     SG+        A1 (1)
   28   192           0.5480603366          14.9134799448      DE        A2 (4)
   29    15           0.5480603366          14.9134799448      DE        A1 (1)
   30   145           0.6246098590          16.9964983477      PI        B2 (3)
   31    93           0.6246098590          16.9964983478      PI        B1 (2)
   32    16           0.7225109571          19.6605226641     SG+        A1 (1)
   33   146           0.7375740266          20.0704096225      PH        B2 (3)
   34    94           0.7375740266          20.0704096225      PH        B1 (2)
   35   193           0.7478840549          20.3509597561      DE        A2 (4)
   36    17           0.7478840549          20.3509597561      DE        A1 (1)
   37   147           0.7871381227          21.4191172461      PI        B2 (3)
   38    95           0.7871381227          21.4191172461      PI        B1 (2)
   39    18           0.8251692897          22.4539979128     SG+        A1 (1)
   40    19           0.8699692472          23.6730667305      DE        A1 (1)
   41   194           0.8699692472          23.6730667305      DE        A2 (4)
   42    20           0.8700377538          23.6749308903     SG+        A1 (1)
   43   148           0.8964279550          24.3930447727      PI        B2 (3)
   44    96           0.8964279550          24.3930447727      PI        B1 (2)
   45   149           1.0324271262          28.0937703627      PI        B2 (3)
   46    97           1.0324271262          28.0937703627      PI        B1 (2)
   47    21           1.1237937580          30.5799828127     SG+        A1 (1)
   48    22           1.3892037063          37.8021546731     SG+        A1 (1)
   49   150           1.4260687556          38.8053036623      PH        B2 (3)
   50    98           1.4260687556          38.8053036623      PH        B1 (2)
   51   151           1.5369482030          41.8224868187      PI        B2 (3)
   52    99           1.5369482030          41.8224868187      PI        B1 (2)
   53    23           1.5710080206          42.7493015739      DE        A1 (1)
   54   195           1.5710080206          42.7493015739      DE        A2 (4)
   55    24           1.6194734682          44.0681134481     SG+        A1 (1)
   56   152           1.6408230009          44.6490637686      PI        B2 (3)
   57   100           1.6408230009          44.6490637686      PI        B1 (2)
   58    25           1.7047163220          46.3876894251      DE        A1 (1)
   59   196           1.7047163220          46.3876894251      DE        A2 (4)
   60    26           1.8976151386          51.6367330818     SG+        A1 (1)
   61    27           1.9937039907          54.2514436768     SG+        A1 (1)
   62   197           2.0794382981          56.5843927862      PI        A2 (4)
   63    28           2.0794382981          56.5843927862      PI        A1 (1)
   64   153           2.0903960574          56.8825685767      PI        B2 (3)
   65   101           2.0903960574          56.8825685767      PI        B1 (2)
   66   198           2.1422305877          58.2930578521      DE        A2 (4)
   67    29           2.1422305877          58.2930578521      DE        A1 (1)
   68   154           2.2197968191          60.4037423152      PH        B2 (3)
   69   102           2.2197968191          60.4037423152      PH        B1 (2)
   70   155           2.2486623068          61.1892121673      PH        B2 (3)
   71   103           2.2486623068          61.1892121673      PH        B1 (2)
   72   156           2.2513103346          61.2612686673      PI        B2 (3)
   73   104           2.2513103346          61.2612686673      PI        B1 (2)
   74    30           2.2548792032          61.3583825198     SG+        A1 (1)
   75    31           2.3055907688          62.7383143738      DE        A1 (1)
   76   199           2.3055907688          62.7383143738      DE        A2 (4)
   77    32           2.4734193784          67.3051630143     SG+        A1 (1)
   78   105           2.5209856039          68.5995058145      PI        B1 (2)
   79   157           2.5209856039          68.5995058145      PI        B2 (3)
   80    33           2.6003240998          70.7584160430     SG+        A1 (1)
   81   158           2.6194999534          71.2802175484      PI        B2 (3)
   82   106           2.6194999534          71.2802175485      PI        B1 (2)
   83   200           2.7350016340          74.4231780634      DE        A2 (4)
   84    34           2.7350016340          74.4231780634      DE        A1 (1)
   85    35           3.1426549576          85.5159889446     SG+        A1 (1)
   86   107           3.5167318748          95.6951393608      PI        B1 (2)
   87   159           3.5167318748          95.6951393608      PI        B2 (3)
   88    36           3.7020256532         100.7372394053      PI        A1 (1)
   89   201           3.7020256532         100.7372394053      PI        A2 (4)
   90    37           3.9048550817         106.2565087508     SG+        A1 (1)
   91   160           3.9844715393         108.4229827031      PH        B2 (3)
   92   108           3.9844715393         108.4229827031      PH        B1 (2)
   93   161           4.1289732381         112.3550738299      PH        B2 (3)
   94   109           4.1289732381         112.3550738299      PH        B1 (2)
   95   162           4.1635871933         113.2969674369      PI        B2 (3)
   96   110           4.1635871933         113.2969674369      PI        B1 (2)
   97    38           4.1931487259         114.1013776348     SG+        A1 (1)
   98   202           4.2192216929         114.8108591357      DE        A2 (4)
   99    39           4.2192216929         114.8108591357      DE        A1 (1)
  100    40           4.2739855181         116.3010585792      DE        A1 (1)
  101   203           4.2739855181         116.3010585792      DE        A2 (4)
  102    41           4.4302864821         120.5542240362     SG+        A1 (1)
  103   163           4.6488208694         126.5008470343      PI        B2 (3)
  104   111           4.6488208694         126.5008470343      PI        B1 (2)
  105    42           4.8089368363         130.8578239992     SG+        A1 (1)
  106   204           4.8132176623         130.9743111958      DE        A2 (4)
  107    43           4.8132176623         130.9743111959      DE        A1 (1)
  108   112           5.1505766394         140.1543156659      PI        B1 (2)
  109   164           5.1505766394         140.1543156659      PI        B2 (3)
  110    44           5.3676950352         146.0624075781     SG+        A1 (1)
  111   113           5.4082992722         147.1673050372      PI        B1 (2)
  112   165           5.4082992722         147.1673050372      PI        B2 (3)
  113   205           5.8483023778         159.1403982408      PI        A2 (4)
  114    45           5.8483023778         159.1403982408      PI        A1 (1)
  115   166           5.9319628513         161.4169154604      PH        B2 (3)
  116   114           5.9319628513         161.4169154604      PH        B1 (2)
  117    46           6.1244501993         166.6547624868     SG+        A1 (1)
  118   206           6.1654124607         167.7694022874      DE        A2 (4)
  119    47           6.1654124607         167.7694022875      DE        A1 (1)
  120   167           6.1850919409         168.3049081668      PI        B2 (3)
  121   115           6.1850919409         168.3049081668      PI        B1 (2)
  122    48           6.2528933143         170.1498773339     SG+        A1 (1)
  123   168           6.3796058237         173.5979000098      PH        B2 (3)
  124   116           6.3796058237         173.5979000098      PH        B1 (2)
  125   207           6.4628483885         175.8630453564      DE        A2 (4)
  126    49           6.4628483885         175.8630453564      DE        A1 (1)
  127    50           6.5138290339         177.2502992439      DE        A1 (1)
  128   208           6.5138290339         177.2502992439      DE        A2 (4)
  129   169           6.9128558302         188.1083703847      PI        B2 (3)
  130   117           6.9128558302         188.1083703847      PI        B1 (2)
  131    51           7.1981923487         195.8727717882     SG+        A1 (1)
  132   170           7.5479026823         205.3888737531      PI        B1 (3)
  133   118           7.5479026823         205.3888737531      PI        B2 (2)
  134    52           8.1946026748         222.9864751951     SG+        A1 (1)
  135    53           9.6837026988         263.5069468681     SG+        A1 (1)
  136   171           9.8979620449         269.3372400824      PI        B2 (3)
  137   119           9.8979620449         269.3372400825      PI        B1 (2)
  138   209          10.6350716134         289.3950111599      PI        A2 (4)
  139    54          10.6350716134         289.3950111599      PI        A1 (1)
  140    55          10.7309167528         292.0030899939     SG+        A1 (1)
  141   172          10.7560578247         292.6872133418      PH        B2 (3)
  142   120          10.7560578247         292.6872133418      PH        B1 (2)
  143    56          10.9908252015         299.0755584394      DE        A1 (1)
  144   210          10.9908252015         299.0755584394      DE        A2 (4)
  145   121          11.0142780154         299.7137419507      PI        B1 (2)
  146   173          11.0142780154         299.7137419507      PI        B2 (3)
  147    57          11.2616883763         306.4461201394     SG+        A1 (1)
  148   174          11.8752221899         323.1412239703      PH        B2 (3)
  149   122          11.8752221899         323.1412239703      PH        B1 (2)
  150   211          12.0336290609         327.4516940703      DE        A2 (4)
  151    58          12.0336290609         327.4516940704      DE        A1 (1)
  152   123          12.5401972021         341.2361139772      PI        B1 (2)
  153   175          12.5401972021         341.2361139772      PI        B2 (3)
  154    59          12.7466584267         346.8542095184      DE        A1 (1)
  155   212          12.7466584267         346.8542095184      DE        A2 (4)
  156    60          12.7907591681         348.0542517015     SG+        A1 (1)
  157   124          13.0875514006         356.1303789298      PI        B1 (2)
  158   176          13.0875514006         356.1303789298      PI        B2 (3)
  159    61          13.8080580503         375.7363616174     SG+        A1 (1)
  160    62          17.4549461994         474.9732332594     SG+        A1 (1)
  161   125          18.8262920161         512.2894500509      PI        B1 (2)
  162   177          18.8262920161         512.2894500510      PI        B2 (3)
  163    63          20.1063942652         547.1228031428     SG+        A1 (1)
  164    64          26.3050048862         715.7955732960      DE        A1 (1)
  165   213          26.3050048862         715.7955732961      DE        A2 (4)
  166   178          26.6883755375         726.2276190730      PI        B2 (3)
  167   126          26.6883755375         726.2276190730      PI        B1 (2)
  168    65          27.1854366284         739.7533389924     SG+        A1 (1)
  169   179          33.5607454349         913.2343112180      PI        B2 (3)
  170   127          33.5607454349         913.2343112187      PI        B1 (2)
  171    66          34.3345969756         934.2918821869     SG+        A1 (1)
  172    67          35.8527771465         975.6036648890     SG+        A1 (1)
  173   214          47.0749184797        1280.9736552755      DE        A2 (4)
  174    68          47.0749184797        1280.9736552755      DE        A1 (1)
  175   128          47.2582922715        1285.9635098300      PI        B1 (2)
  176   180          47.2582922715        1285.9635098301      PI        B2 (3)
  177    69          47.6867230171        1297.6217031070     SG+        A1 (1)
  178    70          63.8684631040        1737.9492366922     SG+        A1 (1)
  179   129          66.3895031098        1806.5502228574      PI        B1 (2)
  180   181          66.3895031098        1806.5502228575      PI        B2 (3)
  181    71          67.3079982836        1831.5437471806     SG+        A1 (1)
  182   182          98.5432340776        2681.4977239626      PH        B2 (3)
  183   130          98.5432340776        2681.4977239627      PH        B1 (2)
  184   215          98.5566383825        2681.8624736412      DE        A2 (4)
  185    72          98.5566383825        2681.8624736412      DE        A1 (1)
  186   131          98.5730555307        2682.3092069555      PI        B1 (2)
  187   183          98.5730555307        2682.3092069555      PI        B2 (3)
  188    73          98.5896329210        2682.7603006778     SG+        A1 (1)
  189   184         103.2955679955        2810.8153042471      PH        B2 (3)
  190   132         103.2955679955        2810.8153042472      PH        B1 (2)
  191   216         103.3060764042        2811.1012525857      DE        A2 (4)
  192    74         103.3060764044        2811.1012525890      DE        A1 (1)
  193   133         103.3470704219        2812.2167565165      PI        B1 (2)
  194   185         103.3470704219        2812.2167565165      PI        B2 (3)
  195    75         103.3493683134        2812.2792853233     SG+        A1 (1)
  196    76         115.0010927374        3129.3388258961      DE        A1 (1)
  197   217         115.0010927374        3129.3388258962      DE        A2 (4)
  198   186         115.1852867841        3134.3510007208      PI        B2 (3)
  199   134         115.1852867841        3134.3510007208      PI        B1 (2)
  200    77         115.4547493563        3141.6834500851     SG+        A1 (1)
  201   187         116.8437385369        3179.4797672156      PI        B2 (3)
  202   135         116.8437385369        3179.4797672162      PI        B1 (2)
  203    78         117.4752149096        3196.6631129028     SG+        A1 (1)
  204    79         122.0642240024        3321.5363987515     SG+        A1 (1)
  205   218         198.5513700676        5402.8574555058      DE        A2 (4)
  206    80         198.5513700676        5402.8574555059      DE        A1 (1)
  207   136         198.6508147883        5405.5634839278      PI        B1 (2)
  208   188         198.6508147883        5405.5634839278      PI        B2 (3)
  209    81         198.8745525744        5411.6516986050     SG+        A1 (1)
  210    82         216.3999243213        5888.5413084379     SG+        A1 (1)
  211   137         224.8592590643        6118.7315094391      PI        B1 (2)
  212   189         224.8592590643        6118.7315094393      PI        B2 (3)
  213    83         225.5732475930        6138.1601250355     SG+        A1 (1)
  214   190         395.3393664966       10757.7310748518      PI        B2 (3)
  215   138         395.3393664966       10757.7310748521      PI        B1 (2)
  216    84         395.8758225754       10772.3287868882     SG+        A1 (1)
  217    85         508.7378882879       13843.4617283082     SG+        A1 (1)
  218    86         895.2274348659       24360.3769603341     SG+        A1 (1)


  VSCF finished.

 @CHECKOUT-I, Total execution time (CPU/WALL):       51.25/      11.33 seconds.
--executable xvscf finished with status     0 in       11.42 seconds (walltime).
 --invoking executable--
/nfs/workspaces/public/cfour_mpi/bin/xvtran
 @GETMEM-I,  Allocated    3814 MB of main memory.
  Full RHF integral transformation
  Transformation of IIII integrals :
  1 pass through the AO integral file was required.
     4481996 AO integrals were read.
     8732920 MO integrals were written to HF2.
  Transformation of IIJJ integrals :
  1 pass through the AO integral file was required.
    10176632 AO integrals were read.
    14484420 MO integrals were written to HF2.
  Transformation of IJIJ integrals :
  1 pass through the AO integral file was required.
    19326505 AO integrals were read.
    27078779 MO integrals were written to HF2.
  Transformation of IJKL integrals :
  1 pass through the AO integral file was required.
    14299420 AO integrals were read.
    18314909 MO integrals were written to HF2.
  Summary of active molecular orbitals: 
------------------------------------------------------------------------
 
  Index      Eigenvalue    Symmetry    Index      Eigenvalue    Symmetry
------------------------------------------------------------------------
     1       -20.6576221        1       110         4.1289732        2
     2       -11.4873851        1       111         4.1635872        2
     3        -1.3326422        1       112         4.6488209        2
     4        -0.7956774        1       113         5.1505766        2
     5        -0.5555331        1       114         5.4082993        2
     6        -0.5282560        2       115         5.9319629        2
     7        -0.5282560        3       116         6.1850919        2
     8         0.0625805        1       117         6.3796058        2
     9         0.0683572        1       118         6.9128558        2
    10         0.1573885        1       119         7.5479027        2
    11         0.2204597        1       120         9.8979620        2
    12         0.2241592        1       121        10.7560578        2
    13         0.2996339        1       122        11.0142780        2
    14         0.3538882        1       123        11.8752222        2
    15         0.4590659        1       124        12.5401972        2
    16         0.5120700        1       125        13.0875514        2
    17         0.5480603        1       126        18.8262920        2
    18         0.7225110        1       127        26.6883755        2
    19         0.7478841        1       128        33.5607454        2
    20         0.8251693        1       129        47.2582923        2
    21         0.8699692        1       130        66.3895031        2
    22         0.8700378        1       131        98.5432341        2
    23         1.1237938        1       132        98.5730555        2
    24         1.3892037        1       133       103.2955680        2
    25         1.5710080        1       134       103.3470704        2
    26         1.6194735        1       135       115.1852868        2
    27         1.7047163        1       136       116.8437385        2
    28         1.8976151        1       137       198.6508148        2
    29         1.9937040        1       138       224.8592591        2
    30         2.0794383        1       139       395.3393665        2
    31         2.1422306        1       140         0.0205573        3
    32         2.2548792        1       141         0.0858721        3
    33         2.3055908        1       142         0.1750056        3
    34         2.4734194        1       143         0.2928062        3
    35         2.6003241        1       144         0.4005415        3
    36         2.7350016        1       145         0.6246099        3
    37         3.1426550        1       146         0.7375740        3
    38         3.7020257        1       147         0.7871381        3
    39         3.9048551        1       148         0.8964280        3
    40         4.1931487        1       149         1.0324271        3
    41         4.2192217        1       150         1.4260688        3
    42         4.2739855        1       151         1.5369482        3
    43         4.4302865        1       152         1.6408230        3
    44         4.8089368        1       153         2.0903961        3
    45         4.8132177        1       154         2.2197968        3
    46         5.3676950        1       155         2.2486623        3
    47         5.8483024        1       156         2.2513103        3
    48         6.1244502        1       157         2.5209856        3
    49         6.1654125        1       158         2.6195000        3
    50         6.2528933        1       159         3.5167319        3
    51         6.4628484        1       160         3.9844715        3
    52         6.5138290        1       161         4.1289732        3
    53         7.1981923        1       162         4.1635872        3
    54         8.1946027        1       163         4.6488209        3
    55         9.6837027        1       164         5.1505766        3
    56        10.6350716        1       165         5.4082993        3
    57        10.7309168        1       166         5.9319629        3
    58        10.9908252        1       167         6.1850919        3
    59        11.2616884        1       168         6.3796058        3
    60        12.0336291        1       169         6.9128558        3
    61        12.7466584        1       170         7.5479027        3
    62        12.7907592        1       171         9.8979620        3
    63        13.8080581        1       172        10.7560578        3
    64        17.4549462        1       173        11.0142780        3
    65        20.1063943        1       174        11.8752222        3
    66        26.3050049        1       175        12.5401972        3
    67        27.1854366        1       176        13.0875514        3
    68        34.3345970        1       177        18.8262920        3
    69        35.8527771        1       178        26.6883755        3
    70        47.0749185        1       179        33.5607454        3
    71        47.6867230        1       180        47.2582923        3
    72        63.8684631        1       181        66.3895031        3
    73        67.3079983        1       182        98.5432341        3
    74        98.5566384        1       183        98.5730555        3
    75        98.5896329        1       184       103.2955680        3
    76       103.3060764        1       185       103.3470704        3
    77       103.3493683        1       186       115.1852868        3
    78       115.0010927        1       187       116.8437385        3
    79       115.4547494        1       188       198.6508148        3
    80       117.4752149        1       189       224.8592591        3
    81       122.0642240        1       190       395.3393665        3
    82       198.5513701        1       191         0.2241592        4
    83       198.8745526        1       192         0.5480603        4
    84       216.3999243        1       193         0.7478841        4
    85       225.5732476        1       194         0.8699692        4
    86       395.8758226        1       195         1.5710080        4
    87       508.7378883        1       196         1.7047163        4
    88       895.2274349        1       197         2.0794383        4
    89         0.0205573        2       198         2.1422306        4
    90         0.0858721        2       199         2.3055908        4
    91         0.1750056        2       200         2.7350016        4
    92         0.2928062        2       201         3.7020257        4
    93         0.4005415        2       202         4.2192217        4
    94         0.6246099        2       203         4.2739855        4
    95         0.7375740        2       204         4.8132177        4
    96         0.7871381        2       205         5.8483024        4
    97         0.8964280        2       206         6.1654125        4
    98         1.0324271        2       207         6.4628484        4
    99         1.4260688        2       208         6.5138290        4
   100         1.5369482        2       209        10.6350716        4
   101         1.6408230        2       210        10.9908252        4
   102         2.0903961        2       211        12.0336291        4
   103         2.2197968        2       212        12.7466584        4
   104         2.2486623        2       213        26.3050049        4
   105         2.2513103        2       214        47.0749185        4
   106         2.5209856        2       215        98.5566384        4
   107         2.6195000        2       216       103.3060764        4
   108         3.5167319        2       217       115.0010927        4
   109         3.9844715        2       218       198.5513701        4
------------------------------------------------------------------------
  -20.6576220783032       -11.4873851307580       -1.33264219544072     
 -0.795677373179677      -0.555533106935890      -0.528256028611318     
 -0.528256028611323       6.258046084271965E-002  6.835723774393823E-002
  0.157388495016222       0.220459676745025       0.224159198424757     
  0.299633881308268       0.353888177872568       0.459065912270441     
  0.512069962344785       0.548060336573085       0.722510957089338     
  0.747884054879233       0.825169289731652       0.869969247151578     
  0.870037753767898        1.12379375804551        1.38920370631150     
   1.57100802063180        1.61947346815638        1.70471632196075     
   1.89761513858854        1.99370399069049        2.07943829809793     
   2.14223058766170        2.25487920323021        2.30559076881778     
   2.47341937838675        2.60032409976483        2.73500163403604     
   3.14265495757928        3.70202565317925        3.90485508174531     
   4.19314872594076        4.21922169292169        4.27398551810437     
   4.43028648209679        4.80893683630885        4.81321766227652     
   5.36769503523834        5.84830237777577        6.12445019928054     
   6.16541246070765        6.25289331426920        6.46284838853225     
   6.51382903391499        7.19819234872698        8.19460267481802     
   9.68370269877840        10.6350716134458        10.7309167528000     
   10.9908252014625        11.2616883763210        12.0336290609303     
[...]
 Convergence information after    14 iterations: 
 Largest element of residual vector :  0.14297424E-05.
 Largest element of DIIS residual   :  0.99021281E-06.
 Convergence information after    15 iterations: 
 Largest element of residual vector :  0.90069926E-06.
 Largest element of DIIS residual   :  0.71345937E-06.
 Convergence information after    16 iterations: 
 Largest element of residual vector :  0.51781801E-06.
 Largest element of DIIS residual   :  0.21529538E-06.
 Convergence information after    17 iterations: 
 Largest element of residual vector :  0.22268120E-06.
 Largest element of DIIS residual   :  0.75298659E-07.
 Perturbed amplitude equations converged in    17 iterations.
  Dominant contributions to perturbed wavefunction:
    7    7  140   28   0.2405593474 ABAB
    7    7   28  140   0.2405593474 ABAB
    7    7  140   39  -0.2222175722 ABAB
    7    7   39  140  -0.2222175722 ABAB
    7    7  140   22  -0.1834820318 ABAB
    7    7   22  140  -0.1834820318 ABAB
    7    7  140   44   0.1746877282 ABAB
    7    7   44  140   0.1746877282 ABAB
    7    7  140   54  -0.1665783419 ABAB
    7    7   54  140  -0.1665783419 ABAB
    7    6   28   89   0.1515360658 ABAB
    6    7   89   28   0.1515360658 ABAB
    7    7  140   57   0.1434193069 ABAB
    7    7   57  140   0.1434193069 ABAB
    7    7  140   29  -0.1418026668 ABAB
    7    7   29  140  -0.1418026668 ABAB
    7    6   39   89  -0.1407859127 ABAB
    6    7   89   39  -0.1407859127 ABAB
    7    7  140   24   0.1331057049 ABAB
    7    7   24  140   0.1331057049 ABAB
  norm of converged amps    1.82232454648712     
 Starting iterative solution of the perturbed Lambda equations.
 The DIIS procedure is used to accelerate convergence.
 Convergence criterion is 10**(-7).
 Maximum number of iterations is 100.
 Convergence information after     1 iterations: 
 Largest element of residual vector :  0.69515328E-01.
 Largest element of DIIS residual   :  0.69515328E-01.
 Convergence information after     2 iterations: 
 Largest element of residual vector : -0.12564167E-01.
 Largest element of DIIS residual   :  0.87864107E-02.
 Convergence information after     3 iterations: 
 Largest element of residual vector : -0.61851529E-02.
 Largest element of DIIS residual   : -0.57362165E-02.
 Convergence information after     4 iterations: 
 Largest element of residual vector : -0.38292984E-02.
 Largest element of DIIS residual   : -0.33834106E-02.
 Convergence information after     5 iterations: 
 Largest element of residual vector : -0.29399110E-02.
 Largest element of DIIS residual   : -0.19804266E-02.
 Convergence information after     6 iterations: 
 Largest element of residual vector : -0.13055838E-02.
 Largest element of DIIS residual   : -0.57251783E-03.
 Convergence information after     7 iterations: 
 Largest element of residual vector : -0.57150659E-03.
 Largest element of DIIS residual   : -0.22814264E-03.
 Convergence information after     8 iterations: 
 Largest element of residual vector : -0.14882969E-03.
 Largest element of DIIS residual   : -0.10040605E-03.
 Convergence information after     9 iterations: 
 Largest element of residual vector : -0.59162121E-04.
 Largest element of DIIS residual   : -0.22502261E-04.
 Convergence information after    10 iterations: 
 Largest element of residual vector : -0.18563599E-04.
 Largest element of DIIS residual   : -0.84245785E-05.
 Convergence information after    11 iterations: 
 Largest element of residual vector : -0.38954366E-05.
 Largest element of DIIS residual   : -0.30234554E-05.
 Convergence information after    12 iterations: 
 Largest element of residual vector : -0.21504336E-05.
 Largest element of DIIS residual   : -0.15696272E-05.
 Convergence information after    13 iterations: 
 Largest element of residual vector :  0.12918531E-05.
 Largest element of DIIS residual   :  0.13563214E-05.
 Convergence information after    14 iterations: 
 Largest element of residual vector :  0.98670368E-06.
 Largest element of DIIS residual   :  0.78465654E-06.
 Convergence information after    15 iterations: 
 Largest element of residual vector :  0.68885199E-06.
 Largest element of DIIS residual   :  0.55393925E-06.
 Convergence information after    16 iterations: 
 Largest element of residual vector :  0.39634215E-06.
 Largest element of DIIS residual   :  0.20972809E-06.
 Convergence information after    17 iterations: 
 Largest element of residual vector :  0.19754413E-06.
 Largest element of DIIS residual   :  0.74757510E-07.
 Perturbed Lambda equations converged in    17 iterations.
  Dominant contributions to perturbed wavefunction:
    7    7  140   28   0.2126608135 ABAB
    7    7   28  140   0.2126608135 ABAB
    7    7  140   39  -0.1933816097 ABAB
    7    7   39  140  -0.1933816097 ABAB
    7    7  140   22  -0.1607429425 ABAB
    7    7   22  140  -0.1607429425 ABAB
    7    7  140   44   0.1524790385 ABAB
    7    7   44  140   0.1524790385 ABAB
    7    7  140   54  -0.1478245781 ABAB
    7    7   54  140  -0.1478245781 ABAB
    7    6   28   89   0.1316640363 ABAB
    6    7   89   28   0.1316640363 ABAB
    7    7  140   57   0.1242229198 ABAB
    7    7   57  140   0.1242229198 ABAB
    7    7  140   29  -0.1216793457 ABAB
    7    7   29  140  -0.1216793457 ABAB
    7    6   39   89  -0.1205265966 ABAB
    6    7   89   39  -0.1205265966 ABAB
    7    7  140   24   0.1128297507 ABAB
    7    7   24  140   0.1128297507 ABAB
        The DBOC first-order density matrix is being calculated 
             (Symmetry block 3, perturbation   2)
 term   3.62373517374129     
 final tnorm  0.833850734531343     
  norm contr. I: |<0|L dT/dx|0>|^2   0.000000000000000E+000
  norm contr. II: <0|[nabla(1+L)e-T][nabla e^T]|0>   3.62373517374129     
  total norm contribution   3.62373517374129     
 oo  7.188663657667039E-003
 vv  -24.1260856348779     
 vo  6.420989477875988E-002
  Correlated perturbed 1-el contribution to DBOC  -24.0546870764415       cm**-1
  SUM_I |dc_I/dx|^2 contribution to DBOC   12.1228391617582       cm**-1
 
 
  The total diagonal Born-Oppenheimer correction (DBOC) is:      0.0038686003 a.u.
  The total diagonal Born-Oppenheimer correction (DBOC) is:        849.059615 cm-1
 
 Total CC energy including DBOC  -113.151382963635     
 First-order density matrix is being calculated  (Symmetry block 3, perturbation   2)
 Calculation of the contributions of <pq||rs> to dI(i,j)/dx required   3.3 seconds.
 Calculation of the contributions of <pq||rs> to dI(a,b)/dx required  17.1 seconds.
 Calculation of the contributions of <pq||rs> to dI(i,a)/dx required   9.4 seconds.
 First-order Z-vector equations are solved for 1 perturbation.
 Convergence reached after  22 iterations.
        U*G(pq,rs) contribution is being calculated
             (Symmetry block 3, perturbation   2)

 CCSD contribution to force constants 

        0.0000000000        0.0000000000        0.0000000000
        0.0000000000        0.0000000000        0.0000000000
        0.0000000000        0.0000000000        0.0000000000
        0.0000000000        0.0000000000        0.0000000000
        0.0000000000        0.0000000000        0.0000000000
        0.0000000000        0.0000000000        0.0000000000
        0.0000000000        0.0000000000        0.0000000000
        0.0000000000        0.0000000000        0.0000000000
        0.0000000000        0.0000000000        0.0000000000
        0.0000000000        0.0000000000        0.0000000000
        0.0000000000        0.0000000000        0.0000000000
        0.0000000000       -0.9720884498        0.9720884498

 CCSD contribution to dipole derivatives 

        0.0000000000        0.0000000000        0.0000000000
        0.0000000000        0.0000000000        0.0000000000
        0.0000000000        0.0000000000        0.0000000000
        0.0000000000        0.0000000000       -0.0556520065
        0.0000000000        0.0000000000        0.0000000000
        0.0000000000        0.0000000000        0.0000000000
 @CHECKOUT-I, Total execution time (CPU/WALL):     1294.84/     500.93 seconds.
--executable xsdcc finished with status     0 in      501.18 seconds (walltime).
 --invoking executable--
/nfs/workspaces/public/cfour_mpi/bin/xanti
 @GETMEM-I,  Allocated    3814 MB of main memory.
 CCSD MO derivative gammas will be sorted to Mulliken order.
 @CHECKOUT-I, Total execution time (CPU/WALL):       13.32/      22.73 seconds.
--executable xanti finished with status     0 in       22.88 seconds (walltime).
 --invoking executable--
/nfs/workspaces/public/cfour_mpi/bin/xbcktrn
 @GETMEM-I,  Allocated    3814 MB of main memory.
 CCSD MO derivative gammas will be transformed to the AO basis.
 @CHECKOUT-I, Total execution time (CPU/WALL):       27.06/      13.19 seconds.
--executable xbcktrn finished with status     0 in       13.25 seconds (walltime).
 --invoking executable--
/nfs/workspaces/public/cfour_mpi/bin/xvdint
 @GETMEM-I,  Allocated    3814 MB of main memory.
 One- and two-electron integral derivatives are calculated
 for RHF-CC/MBPT hessians and dipole derivatives.
 Spherical gaussians are used.
  magnet F F
                    8722  records have been written to the Sort file.
  Total length of Sort file :             178609116  words.
 Evaluation of 2el integral derivatives

                      Two-electron integral gradient
                      ------------------------------

                         C #1 z     0.0000000000
                         O #2 z     0.0000000000


 C #1       0.0000000000           -0.0043857187            0.0000000000
 O #2       0.0000000000            0.0043857187            0.0000000000


 Evaluation of 2e integral derivatives required  364.68 seconds.
  contribution to Hessian
        0.0000000000        0.0000000000        0.0000000000
        0.0000000000       -0.0043857187        0.0043857187
 @CHECKOUT-I, Total execution time (CPU/WALL):      364.67/      73.96 seconds.
--executable xvdint finished with status     0 in       74.14 seconds (walltime).
 --invoking executable--
/nfs/workspaces/public/cfour_mpi/bin/xanti
 @GETMEM-I,  Allocated    3814 MB of main memory.
 CCSD MO gammas will be sorted to Mulliken order.
 @CHECKOUT-I, Total execution time (CPU/WALL):       17.16/      52.06 seconds.
--executable xanti finished with status     0 in       52.50 seconds (walltime).
 --invoking executable--
/nfs/workspaces/public/cfour_mpi/bin/xbcktrn
 @GETMEM-I,  Allocated    3814 MB of main memory.
 CCSD MO gammas will be transformed to the AO basis.
 @CHECKOUT-I, Total execution time (CPU/WALL):       46.48/      19.06 seconds.
--executable xbcktrn finished with status     0 in       19.13 seconds (walltime).
 --invoking executable--
/nfs/workspaces/public/cfour_mpi/bin/xvdint
 @GETMEM-I,  Allocated    3814 MB of main memory.
 One- and two-electron integral derivatives are calculated
 for RHF-CC/MBPT hessians and dipole derivatives.
 Spherical gaussians are used.
  magnet F F

                     Kinetic energy integral gradient
                     --------------------------------

                         C #1 z    -0.7192463285
                         O #2 z     0.7192463285


 C #1       0.0000000000            0.0000000000           -0.7192463285
 O #2       0.0000000000            0.0000000000            0.7192463285



                   Nuclear attraction integral gradient
                   ------------------------------------

                         C #1 z    15.9948791485
                         O #2 z   -15.9948791485


 C #1       0.0000000000            0.0000000000           15.9948791485
 O #2       0.0000000000            0.0000000000          -15.9948791485



                      Reorthonormalization gradient
                      -----------------------------

                         C #1 z     0.0000000000
                         O #2 z     0.0000000000


 C #1       0.0000000000            0.0000000000            0.0000000000
 O #2       0.0000000000            0.0000000000            0.0000000000



                     Kinetic energy integral Hessian
                     -------------------------------


           Symmetry 1

           C #1 z      O #2 z

 C #1 z    0.737005
 O #2 z   -0.737005    0.737005


           Symmetry 2

           C #1 x      O #2 x

 C #1 x   -0.630404
 O #2 x    0.630404   -0.630404


           Symmetry 3

           C #1 y      O #2 y

 C #1 y   -0.630404
 O #2 y    0.630404   -0.630404




           C #1 x      C #1 y      C #1 z      O #2 x      O #2 y      O #2 z

 C #1 x   -0.630404
 C #1 y    0.000000   -0.630404
 C #1 z    0.000000    0.000000    0.737005

 O #2 x    0.630404    0.000000    0.000000   -0.630404
 O #2 y    0.000000    0.630404    0.000000    0.000000   -0.630404
 O #2 z    0.000000    0.000000   -0.737005    0.000000    0.000000    0.737005




                   Nuclear attraction integral Hessian
                   -----------------------------------


           Symmetry 1

           C #1 z      O #2 z

 C #1 z   -9.896783
 O #2 z    9.896783   -9.896783


           Symmetry 2

           C #1 x      O #2 x

 C #1 x    9.752017
 O #2 x   -9.752017    9.752017


           Symmetry 3

           C #1 y      O #2 y

 C #1 y    9.752017
 O #2 y   -9.752017    9.752017




           C #1 x      C #1 y      C #1 z      O #2 x      O #2 y      O #2 z

 C #1 x    9.752017
 C #1 y    0.000000    9.752017
 C #1 z    0.000000    0.000000   -9.896783

 O #2 x   -9.752017    0.000000    0.000000    9.752017
 O #2 y    0.000000   -9.752017    0.000000    0.000000    9.752017
 O #2 z    0.000000    0.000000    9.896783    0.000000    0.000000   -9.896783




                Highest order reorthonormalization Hessian
                ------------------------------------------


           Symmetry 1

           C #1 z      O #2 z

 C #1 z    0.000000
 O #2 z    0.000000    0.000000


           Symmetry 2

           C #1 x      O #2 x

 C #1 x    0.000000
 O #2 x    0.000000    0.000000


           Symmetry 3

           C #1 y      O #2 y

 C #1 y    0.000000
 O #2 y    0.000000    0.000000




           C #1 x      C #1 y      C #1 z      O #2 x      O #2 y      O #2 z




                Electronic contributions to dipole moment
                -----------------------------------------

                               au             Debye

                    z     -0.76142199     -1.93534200

  Conversion factor used: 1 a.u. =   2.54174691 Debye 



   Electronic contributions to static part of dipole moment derivatives
   --------------------------------------------------------------------


                     Total dipole moment derivatives
                     -------------------------------


           Symmetry 1
                              Ez

               C #1 z    -5.61383974
               O #2 z    -8.38616026

           Symmetry 2
                              Ex

               C #1 x    -5.67385698
               O #2 x    -8.32614302

           Symmetry 3
                              Ey

               C #1 y    -5.67385698
               O #2 y    -8.32614302



                       Ex          Ey          Ez

      C #1    x   -5.673857    0.000000    0.000000
      C #1    y    0.000000   -5.673857    0.000000
      C #1    z    0.000000    0.000000   -5.613840

      O #2    x   -8.326143    0.000000    0.000000
      O #2    y    0.000000   -8.326143    0.000000
      O #2    z    0.000000    0.000000   -8.386160

 Evaluation of 1e integral derivatives required    1.77 seconds.
                    8815  records have been written to the Sort file.
  Total length of Sort file :             180513570  words.
 Evaluation of 2el integral derivatives

                      Two-electron integral gradient
                      ------------------------------

                         C #1 z    -8.3060696485
                         O #2 z     8.3060696485


 C #1       0.0000000000            0.0000000000           -8.3060696485
 O #2       0.0000000000            0.0000000000            8.3060696485


 Evaluation of 2e integral derivatives required  726.96 seconds.

                            Molecular gradient
                            ------------------

                         C #1 z     0.6518692376
                         O #2 z    -0.6518692376


 C #1       0.0000000000            0.0000000000            0.6518692376
 O #2       0.0000000000            0.0000000000           -0.6518692376


  Molecular gradient norm 0.922E+00

                            Molecular hessian
                            -----------------


           Symmetry 1

           C #1 z      O #2 z

 C #1 z   25.684313
 O #2 z  -25.684313   25.684313


           Symmetry 2

           C #1 x      O #2 x

 C #1 x    1.254058
 O #2 x   -1.254058    1.254058


           Symmetry 3

           C #1 y      O #2 y

 C #1 y    1.254058
 O #2 y   -1.254058    1.254058




           C #1 x      C #1 y      C #1 z      O #2 x      O #2 y      O #2 z

 C #1 x    1.254058
 C #1 y    0.000000    1.254058
 C #1 z    0.000000    0.000000   25.684313

 O #2 x   -1.254058    0.000000    0.000000    1.254058
 O #2 y    0.000000   -1.254058    0.000000    0.000000    1.254058
 O #2 z    0.000000    0.000000  -25.684313    0.000000    0.000000   25.684313




                           Total dipole moment
                           -------------------

                               au             Debye

                    z      0.34070363      0.86598240

  Conversion factor used: 1 a.u. =   2.54174691 Debye 



                     Total dipole moment derivatives
                     -------------------------------


           Symmetry 1
                              Ez

               C #1 z     0.64442646
               O #2 z    -0.64442646

           Symmetry 2
                              Ex

               C #1 x     0.12856227
               O #2 x    -0.12856227

           Symmetry 3
                              Ey

               C #1 y     0.12856227
               O #2 y    -0.12856227



                       Ex          Ey          Ez

      C #1    x    0.128562    0.000000    0.000000
      C #1    y    0.000000    0.128562    0.000000
      C #1    z    0.000000    0.000000    0.644426

      O #2    x   -0.128562    0.000000    0.000000
      O #2    y    0.000000   -0.128562    0.000000
      O #2    z    0.000000    0.000000   -0.644426

 @CHECKOUT-I, Total execution time (CPU/WALL):      728.72/     124.52 seconds.
--executable xvdint finished with status     0 in      124.74 seconds (walltime).
 --invoking executable--
/nfs/workspaces/public/cfour_mpi/bin/xjoda
  @GTFLGS-I, Hessian will be transformed to curvilinear coordinates.
  @GTFLGS-I, Hessian will be transformed to curvilinear coordinates.
  igrd and ihes are                      0                     1
  gradient from JOBARC 
   0.000000000000000   0.000000000000000   0.651869237645011
   0.000000000000000   0.000000000000000  -0.651869237645011
 
  @PROJFCM-I, Projecting force constant matrix onto totally symmetric subspace.
  Largest difference between matrix elements of symmetrized
  and unsymmetrized FCM :     0.2125855048E-11.
  read isotopes from ZMAT file 
 
  Summary of diagonal Born-Oppenheimer correction at the correlated level
  The total diagonal Born-Oppenheimer correction (DBOC) is:      0.0038686003 a.u.
  The total diagonal Born-Oppenheimer correction (DBOC) is:        849.059615 cm-1
  The total diagonal Born-Oppenheimer correction (DBOC) is:            10.157 kJ/mole
  hellooooooo 
  readis is  F
 
 @CHECKOUT-I, Total execution time (CPU/WALL):        0.01/       0.08 seconds.
--executable xjoda finished with status     0 in        0.13 seconds (walltime).
  The final electronic energy is      -113.151382963634674 a.u. 
  This computation required                         4449.30 seconds (walltime).
