 --invoking executable--
/nfs/workspaces/public/cfour_mpi/bin/xjoda


   *************************************************************************
         <<<     CCCCCC     CCCCCC   |||     CCCCCC     CCCCCC   >>>
       <<<      CCC        CCC       |||    CCC        CCC         >>>
      <<<      CCC        CCC        |||   CCC        CCC            >>>
    <<<        CCC        CCC        |||   CCC        CCC              >>>
      <<<      CCC        CCC        |||   CCC        CCC            >>>
       <<<      CCC        CCC       |||    CCC        CCC         >>>
         <<<     CCCCCC     CCCCCC   |||     CCCCCC     CCCCCC   >>>
   *************************************************************************

     ****************************************************************
     * CFOUR Coupled-Cluster techniques for Computational Chemistry *
     ****************************************************************
 

   Department of Chemistry                Institut fuer Physikalische Chemie
   University of Florida                  Universitaet Mainz
   Gainesville, FL 32611, USA             D-55099 Mainz, Germany

   Department of Chemistry                Fakultaet fuer Chemie und Biowiss.
   Johns Hopkins University               Karlsruher Institut fuer Technologie
   Baltimore, MD 21218, USA               D-76131 Karlsruhe, Germany

   Department of Chemistry                Department of Physical Chemistry
   Southern Methodist University          Eotvos Lorand University
   Dallas, TX 75275, USA                  H-1053 Budapest, Hungary

 
                       Version 2.1
 
                     vincent.theory.phys.ucl.ac.uk                     
                     Sat  1 Mar 05:03:09 GMT 2025                      
                     integer*8 version is running
 
********************************************************************************
*                          Input from ZMAT file                                *
********************************************************************************
Carbon Monoxide DBOC calculation                                                
C                                                                               
O 1 r                                                                           
                                                                                
r=0.9310344827586207                                                            
                                                                                
                                                                                
*CFOUR(CALC=CCSD,BASIS=AUG-PCVQZ,SCF_CONV=10                                    
CC_CONV=14,DBOC=ON,MEMORY=500000000                                             
ZFIELD=-200)                                                                    
                                                                                
%isotopes                                                                       
12                                                                              
18                                                                              
********************************************************************************
  @GTFLGS-I, Hessian will be transformed to curvilinear coordinates.
    -------------------------------------------------------------------
                    CFOUR Control Parameters 
    -------------------------------------------------------------------
        External           Internal           Value            Units
          Name               Name
    -------------------------------------------------------------------
       ABCDTYPE             IABCDT         STANDARD    [  0]    ***   
       ANHARMONIC           IANHAR         OFF         [  0]    ***   
       ANH_ALGORIT          IANALG         STANDARD    [  0]    ***   
       ANH_DERIVAT          IANDER         SECOND      [  1]    ***   
       ANH_MODE             ANHMOD         VIBRATION   [  0]    ***   
       ANH_STEPSIZ          ICUBST             50000          x 10-6  
       ANH_SYMMETR          IANHSM         ABELIAN     [  0]    ***   
       AO_LADDERS           IAOLAD         SINGLEPASS  [  1]    ***   
       AV_SCF               IAVSCF         OFF         [  0]    ***   
       BASIS                IBASIS         AUG-PCVQZ   [ 52]    ***   
       BOTHVECTORS          BOTHVC         OFF         [  0]    ***   
       BOX_POTENT           IPIAB          OFF         [  0]    ***   
       BREIT                IBREIT         OFF         [  0]    ***   
       BRUCK_CONV           IBRTOL          10D-  4             ***   
       BRUECKNER            IBRKNR         OFF         [  0]    ***   
       BUFFERSIZE           IBUFFS              4096            ***   
       CACHE_RECS           ICHREC             10               ***   
       CALCLEVEL            ICLLVL         CCSD        [ 10]    ***   
       CCORBOPT             ICCORB         OFF         [  0]  x 0.01  
       CC_CONV              ICCCNV          10D- 14             ***   
       CC_EXPORDER          ICCEOR              5               ***   
       CC_EXTRAPOL          ICCEXT         DIIS        [  1]    ***   
       CC_GUESS             ICCGES         MP2         [  0]    ***   
       CC_MAXCYC            ICCCYC            100              cycles 
       CC_PROGRAM           ICCPRO         VCC         [  0]    ***   
       CHARGE               ICHRGE              0               ***   
       CHOLESKY             ICHOLE         OFF         [  0]    ***   
       CIS_CONV             ICISTL              5               ***   
       COMM_SIZE            IPSIZE            ***               ***   
       CONSTANT             ICONST         OLD         [  1]    ***   
       CONTINUUM            ICONTU         NONE        [  0]    ***   
       CONTRACTION          ICNTYP         GENERAL     [  1]    ***   
       COORDINATES          ICOORD         INTERNAL    [  0]    ***   
       CPHF_CONVER          ICPHFT          10D- 16             ***   
       CPHF_MAXCYC          ICPHFC             64              cycles 
       CUBIC                ICUBIC         OFF         [  0]    ***   
       CURVILINEAR          ICURVY         ON          [  1]    ***   
       DBOC                 IDBOC          ON          [  1]    ***   
       DCT                  IDCT           OFF         [  0]    ***   
       DERIV_LEV            IDRLVL         SECOND      [  2]    ***   
       DEVMEM_SIZE          IDVMEM          50000000           MByte  
       DIAG_MRCC            IEOMST          10D-  0             ***   
       DIFF_TYPE            IDIFTY         RELAXED     [  0]    ***   
       DIRECT               IDIRCT         OFF         [  0]    ***   
       DROPMO               IDRPMO      NONE         
       ECP                  IECP           OFF         [  0]    ***   
       EIGENVECTOR          IVEC                1               ***   
       EL_ANHARM            IELANH         OFF         [  0]    ***   
       EOMFOLLOW            IEOMSR         ENERGY      [  0]    ***   
       EOMIP                IEOMIP         OFF         [  0]    ***   
       EOMLEVEL             HBARFM         SAME        [  0]    ***   
       EOM_MRCC             IMRCCE         NEW         [  1]    ***   
       EOM_NONIT            EOMNON         OFF         [  0]    ***   
       EOM_NSING            IEOMSI          10D-  0             ***   
       EOM_NSTATES          IMRCCD         DAVIDSON    [  0]    ***   
       EOM_NTRIP            IEOMTR          10D-  0             ***   
       EOM_ORDER            IEXORD         ENERGY      [  0]    ***   
       EOM_PROPSTA          IEOMST              0               ***   
       ESTATE_CONV          IEXTOL          10D-  5             ***   
       ESTATE_DIAG          IEXDIG         ITERATIVE   [  0]    ***   
       ESTATE_LOCK          IESLOC         ON          [  1]    ***   
       ESTATE_MAXC          IEXMXC             40               ***   
       ESTATE_PROP          IEXPRP         OFF         [  0]    ***   
       EVAL_HESS            IRECAL              0            # of cyc.
       EXCITATION           IEXCIT              0               ***   
       EXCITE               IEXCIT         NONE        [  0]    ***   
       EXTERN_POT           IEXPOT         OFF         [  0]    ***   
       FCGRADNEW            IFCGNW         OFF         [  0]    ***   
       FC_FIELD             IFINFC              0             x 10-6  
       FD_CALTYPE           IFDCAL         GRADONLY    [  0]    ***   
       FD_PROJECT           IFDPRJ         OFF         [  1]    ***   
       FD_STEPSIZE          IDISFD              0            10-4 bohr
       FD_USEGROUP          IFDGRP         FULL        [  0]    ***   
       FILE_RECSIZ          IFLREC              4096           words  
       FINITE_PERT          IFIPER              0             x 10-6  
       FIXGEOM              IFIXGM         OFF         [  0]    ***   
       FOCK                 IFOCK          AO          [  1]    ***   
       FREQ_ALGORI          IVIALG         STANDARD    [  0]    ***   
       FROZEN_CORE          IFROCO         OFF         [  0]    ***   
       GAMMA_ABCD           IGABCD         STORE       [  0]    ***   
       GAMMA_ABCI           IGABCI         STORE       [  0]    ***   
       GENBAS_1             IGNBS1              0               ***   
       GENBAS_2             IGNBS2              0               ***   
       GENBAS_3             IGNBS3              0               ***   
       GENBAS_4             IGNBS4              0               ***   
       GEO_CONV             ICONTL              5              H/bohr 
       GEO_MAXCYC           IOPTCY             50               ***   
       GEO_MAXSTEP          IMXSTP            300            millibohr
       GEO_METHOD           INR            SINGLE_POINT[  5]    ***   
       GIAO                 IGIAO          OFF         [  1]    ***   
       GIMIC                IGIMIC         OFF         [  0]    ***   
       GRID                 IGRID          OFF         [  0]    ***   
       GRID_ALGO            IGALGO         SERIAL      [  0]    ***   
       GUESS                IGUESS         MOREAD      [  0]    ***   
       HBAR                 IHBAR          OFF         [  0]    ***   
       HESS_TYPE            IHESTP         SCF         [  0]    ***   
       HF2_FILE             IHF2Fl         USE         [  1]    ***   
       HFSTABILITY          ISTABL         OFF         [  0]    ***   
       INCORE               INCORE         OFF         [  0]    ***   
       INPUT_MRCC           IMRCC          ON          [  1]    ***   
       INTEGRALS            INTTYP         VMOL        [  1]    ***   
       JODA_PRINT           IJPRNT              0               ***   
       KEYWORD_OUT          IDMPKW         NO          [  0]    ***   
       LINDEP_TOL           ILINDP              8               ***   
       LINEQ_CONV           IZTACN          10D-  7           cycles  
       LINEQ_EXPOR          ILMAXD              5               ***   
       LINEQ_MAXCY          ILMAXC            100               ***   
       LINEQ_TYPE           ILTYPE         DIIS        [  1]    ***   
       LOCK_ORBOCC          ILOCOC         OFF         [  0]    ***   
       MEMORY_SIZE          IMEMSZ         500000000           words  
       MEM_UNIT             IMEMU          INTEGERWORDS[  0]    ***   
       MRCC                 IMRCCC         OFF         [  0]    ***   
       MULTIPLICTY          IMULTP              1               ***   
       NACOUPLING           IVCOUP         OFF         [  0]    ***   
       NEGEVAL              IDIE           ABORT       [  0]    ***   
       NEWNORM              INEWNO         OFF         [  0]    ***   
       NON-HF               INONHF         OFF         [  0]    ***   
       NTOP_TAMP            ITOPT2             15               ***   
       NUC_MODEL            INUCMO         POINT       [  0]    ***   
       OCCUPATION           IOCCU   ESTIMATED BY SCF 
       OPEN-SHELL           IOPEN          SPIN-ORBITAL[  0]    ***   
       OPTVIB               IOPTVB         OFF         [  0]    ***   
       ORBITALS             IORBTP         STANDARD    [  0]    ***   
       PARALLEL             IPARAL         ON          [  1]    ***   
       PARA_INT             IPINTS         ON          [  1]    ***   
       PARA_PRINT           IPPRIN              0               ***   
       PERT_ORB             IPTORB         STANDARD    [  0]    ***   
       POINTS               IGRDFD              0               ***   
       PRINT                IPRNT               0               ***   
       PROPS                IPROPS         OFF         [  0]    ***   
       PROP_INTEGR          IINTYP         INTERNAL    [  0]    ***   
       PSI                  IPSI           OFF         [  0]    ***   
       QC_ALG               IQCALG         FLM         [  0]    ***   
       QC_LINALG            IQCLIN         TRIDIAG     [  2]    ***   
       QC_MAXCYC            IQCMAX          10D-100           cycles  
       QC_MAXSCFCY          IQCMSC          10D- 15           cycles  
       QC_RTRUST            IQCRTR          10D-  0           x 10-3  
       QC_SKIPSCF           IQCSKI         OFF         [  0]    ***   
       QC_START             IQCSTA          10D-  1             ***   
       QRHFGUESS            IQGUES         OFF         [  0]    ***   
       QUARTIC              IQUART         OFF         [  0]    ***   
       RAMAN_INT            IRAMIN         OFF         [  0]    ***   
       RAMAN_ORB            IRAMRE         UNRELAXED   [  0]    ***   
       RDO                  IRDOFM         ON          [  1]    ***   
       REDUCE_REPR          REDREP         Ir          [  0]    ***   
       REFERENCE            IREFNC         RHF         [  0]    ***   
       RELATIVIST           IRELAT         OFF         [  0]    ***   
       RELAX_DENS           IRDENS         ON          [  1]    ***   
       RESET_FLAGS          IRESET         OFF         [  0]    ***   
       RESTART_CC           ICCRES         OFF         [  0]    ***   
       ROT_EVEC             ROTVEC              0               ***   
       SAVE_INTS            ISVINT         OFF         [  0]    ***   
       SCALE_ON             ISTCRT              0               ***   
       SCF_CONV             ISCFCV          10D- 10             ***   
       SCF_DAMPING          IDAMP               0             x 10-3  
       SCF_EXPORDE          IRPPOR              6               ***   
       SCF_EXPSTAR          IRPPLS              8               ***   
       SCF_EXTRAPO          IRPP           ON          [  1]    ***   
       SCF_MAXCYC           ISCFCY            150              cycles 
       SCF_NOSTOP           ISCFST         OFF         [  0]    ***   
       SCF_PRINT            ISCFPR              0               ***   
       SCF_PROG             ISCFPR         SCF         [  0]    ***   
       SD_FIELD             IFINSD              0             x 10-6  
       SOPERT               IPERSO         OFF         [  0]    ***   
       SPHERICAL            IDFGHI         ON          [  1]    ***   
       SPINORBIT            ISOCAL         OFF         [  0]    ***   
       SPINROTATIO          ISRCON         OFF         [  0]    ***   
       SPIN_FLIP            ISPFLP         OFF         [  0]    ***   
       SPIN_ORBIT           ISPORB         OFF         [  0]    ***   
       SPIN_SCAL            ISCSMP         OFF         [  0]    ***   
       STEEPSCALE           ISTPSC              1000          x 10-3  
       SUBGROUP             ISUBGP         DEFAULT     [  0]    ***   
       SUBGRPAXIS           ISBXYZ         X           [  0]    ***   
       SYMMETRY             ISYM           ON          [  0]    ***   
       SYM_CHECK            ISYMCK         OVERRIDE    [  1]    ***   
       T3_EXTRAPOL          IT3EXT         OFF         [  0]    ***   
       T4_EXTRAPOL          IT4EXP         OFF         [  0]    ***   
       TAMP_SUM             IEVERY              5               ***   
       TESTSUITE            ITESTS         OFF         [  0]    ***   
       THERMOCH             ITHERM         OFF         [  0]    ***   
       TOL_CHOLESK          ITOLCH          10D-  4             ***   
       TRANGRAD             IRESRM         OFF         [  0]    ***   
       TRANS_INV            ITRAIN         IGNORE      [  1]    ***   
       TREAT_PERT           ITREAT         SIMULTANEOUS[  0]    ***   
       TRIP_ALGORI          ITRALG         NORMAL      [  0]    ***   
       UIJ_THRESHO          IUIJTH              1               ***   
       UNITS                IUNITS         ANGSTROM    [  0]    ***   
       UNOS                 IUNOS          OFF         [  0]    ***   
       UPDATE_HESS          IHUPDT         ON          [  1]    ***   
       VIBPHASE             ISETPH         STANDARD    [  0]    ***   
       VIBRATION            IVIB           ANALYTIC    [  1]    ***   
       VIB_ALGORIT          IGEALG         STANDARD    [  0]    ***   
       VNATORB              IVNORB         OFF         [  0]    ***   
       VTRAN                IVTRAN         FULL/PARTIAL[  0]    ***   
       XFIELD               IXEFLD              0             x 10-6  
       XFORM_TOL            IXFTOL          10D- 11             ***   
       YFIELD               IYEFLD              0             x 10-6  
       ZFIELD               IZEFLD            ***             x 10-6  
       ZSCALE_EXP           IZEXPS         OFF         [  0]    ***   
    -------------------------------------------------------------------
   2 entries found in Z-matrix 
   Job Title : Carbon Monoxide DBOC calculation                                                
   There are  1 unique internal coordinates.
   Of these,  0 will be optimized.
   User supplied Z-matrix: 
--------------------------------------------------------------------------------
       SYMBOL    BOND      LENGTH    ANGLE     ANGLE     DIHED     ANGLE
                  TO      (ANGST)    WRT      (DEG)      WRT      (DEG)
--------------------------------------------------------------------------------
        C    
        O          1         r    
                  *Initial values for internal coordinates* 
                      Name             Value
                        r               0.9310344828
--------------------------------------------------------------------------------
  read isotopes from ZMAT file 
   Rotational constants (in cm-1): 
          2.7010997981             2.7010997981
   Rotational constants (in MHz): 
      80976.9461215980         80976.9461215980
********************************************************************************
   The full molecular point group is CXv .
   The largest Abelian subgroup of the full molecular point group is C2v .
   The computational point group is C2v .
********************************************************************************
--------------------------------------------------------------------------------
   Analysis of internal coordinates specified by Z-matrix 
--------------------------------------------------------------------------------
   *The nuclear repulsion energy is   27.282019377777775 a.u.
   *There is   1 degree of freedom within the tot. symm. molecular subspace.
   *Z-matrix requests optimization of   0 coordinates.
   *The optimization is constrained.
   *The following   1 parameters can have non-zero 
    derivatives within the totally symmetric subspace:
             r    [ 1]
   *The following   0 parameters are to be optimized:

   *The following coordinates must be varied in an  unconstrained optimization.
             r    [ 1]
--------------------------------------------------------------------------------


 ----------------------------------------------------------------
         Coordinates used in calculation (QCOMP) 
 ----------------------------------------------------------------
 Z-matrix   Atomic            Coordinates (in bohr)
  Symbol    Number           X              Y              Z
 ----------------------------------------------------------------
     C         6        -0.00000000     0.00000000     1.05562063
     O         8         0.00000000     0.00000000    -0.70377992
 ----------------------------------------------------------------
 
   Interatomic distance matrix (Angstroms) 
 
                 C             O    
                [ 1]        [ 2]
  C    [ 1]     0.00000
  O    [ 2]     0.93103     0.00000
 rotcon2
   Rotational constants (in cm-1): 
          2.7010997981             0.0000000000
   Rotational constants (in MHz): 
      80976.9461215980             0.0000000000
  ECPDATA file not present.   Using default ECPDATA. 
  @GTFLGS-I, Hessian will be transformed to curvilinear coordinates.
  There are  218 basis functions.
 @CHECKOUT-I, Total execution time (CPU/WALL):        0.21/       0.28 seconds.
--executable xjoda finished with status     0 in        0.31 seconds (walltime).
 --invoking executable--
/nfs/workspaces/public/cfour_mpi/bin/xvmol
 SERIAL VERSION OF MOLECULE STARTED
********************************************************************************
                    INPUT FROM MOL FILE
********************************************************************************
INTGRL        1    0    1    0    0    0    0    0    0                         
         *** CFOUR Program System (Release V0.1) ***                            
Carbon Monoxide DBOC calculation                                                
    2    2 X  Y       0.10E-08              0    0                              
   9999.00      3.00                                                            
          6.00000000    1    5    1    1    1    1    1                         
C #1  -0.000000000000000   0.000000000000000   1.055620633435066                
   16    9                                                                      
   33980.0000000000       9.100000000000000E-005 -1.900000000000000E-005        
  0.000000000000000E+000  0.000000000000000E+000  0.000000000000000E+000        
  0.000000000000000E+000  0.000000000000000E+000  0.000000000000000E+000        
  0.000000000000000E+000                                                        
   5089.00000000000       7.040000000000000E-004 -1.510000000000000E-004        
  0.000000000000000E+000  0.000000000000000E+000  0.000000000000000E+000        
  0.000000000000000E+000  0.000000000000000E+000  0.000000000000000E+000        
  0.000000000000000E+000                                                        
   1157.00000000000       3.693000000000000E-003 -7.850000000000000E-004        
  0.000000000000000E+000  0.000000000000000E+000  0.000000000000000E+000        
  0.000000000000000E+000  0.000000000000000E+000  0.000000000000000E+000        
  0.000000000000000E+000                                                        
   326.600000000000       1.536000000000000E-002 -3.324000000000000E-003        
  0.000000000000000E+000  0.000000000000000E+000  0.000000000000000E+000        
  0.000000000000000E+000  0.000000000000000E+000  0.000000000000000E+000        
  0.000000000000000E+000                                                        
   106.100000000000       5.292900000000000E-002 -1.151200000000000E-002        
  0.000000000000000E+000  0.000000000000000E+000  0.000000000000000E+000        
  0.000000000000000E+000  0.000000000000000E+000  0.000000000000000E+000        
  0.000000000000000E+000                                                        
   38.1100000000000       0.147043000000000      -3.416000000000000E-002        
  0.000000000000000E+000  0.000000000000000E+000  0.000000000000000E+000        
  0.000000000000000E+000  0.000000000000000E+000  0.000000000000000E+000        
  0.000000000000000E+000                                                        
   14.7500000000000       0.305631000000000      -7.717300000000001E-002        
  0.000000000000000E+000  0.000000000000000E+000  0.000000000000000E+000        
  0.000000000000000E+000  0.000000000000000E+000  0.000000000000000E+000        
  0.000000000000000E+000                                                        
   6.03500000000000       0.399345000000000      -0.141493000000000             
  0.000000000000000E+000  0.000000000000000E+000  0.000000000000000E+000        
  0.000000000000000E+000  0.000000000000000E+000  0.000000000000000E+000        
  0.000000000000000E+000                                                        
   2.53000000000000       0.217051000000000      -0.118019000000000             
  0.000000000000000E+000  0.000000000000000E+000  0.000000000000000E+000        
  0.000000000000000E+000  0.000000000000000E+000  0.000000000000000E+000        
  0.000000000000000E+000                                                        
  0.735500000000000       1.589400000000000E-002  0.273806000000000             
   1.00000000000000       0.000000000000000E+000  0.000000000000000E+000        
  0.000000000000000E+000  0.000000000000000E+000  0.000000000000000E+000        
  0.000000000000000E+000                                                        
  0.290500000000000      -3.084000000000000E-003  0.586510000000000             
  0.000000000000000E+000   1.00000000000000       0.000000000000000E+000        
  0.000000000000000E+000  0.000000000000000E+000  0.000000000000000E+000        
  0.000000000000000E+000                                                        
  0.111100000000000       9.779999999999999E-004  0.285430000000000             
  0.000000000000000E+000  0.000000000000000E+000   1.00000000000000             
  0.000000000000000E+000  0.000000000000000E+000  0.000000000000000E+000        
  0.000000000000000E+000                                                        
   7.21600000000000       0.000000000000000E+000  0.000000000000000E+000        
  0.000000000000000E+000  0.000000000000000E+000  0.000000000000000E+000        
   1.00000000000000       0.000000000000000E+000  0.000000000000000E+000        
  0.000000000000000E+000                                                        
   19.5700000000000       0.000000000000000E+000  0.000000000000000E+000        
  0.000000000000000E+000  0.000000000000000E+000  0.000000000000000E+000        
  0.000000000000000E+000   1.00000000000000       0.000000000000000E+000        
  0.000000000000000E+000                                                        
   53.0730000000000       0.000000000000000E+000  0.000000000000000E+000        
  0.000000000000000E+000  0.000000000000000E+000  0.000000000000000E+000        
  0.000000000000000E+000  0.000000000000000E+000   1.00000000000000             
  0.000000000000000E+000                                                        
  4.145000000000000E-002  0.000000000000000E+000  0.000000000000000E+000        
  0.000000000000000E+000  0.000000000000000E+000  0.000000000000000E+000        
  0.000000000000000E+000  0.000000000000000E+000  0.000000000000000E+000        
   1.00000000000000                                                             
   10    8                                                                      
   34.5100000000000       5.378000000000000E-003  0.000000000000000E+000        
  0.000000000000000E+000  0.000000000000000E+000  0.000000000000000E+000        
  0.000000000000000E+000  0.000000000000000E+000  0.000000000000000E+000        
   7.91500000000000       3.613200000000000E-002  0.000000000000000E+000        
  0.000000000000000E+000  0.000000000000000E+000  0.000000000000000E+000        
  0.000000000000000E+000  0.000000000000000E+000  0.000000000000000E+000        
   2.36800000000000       0.142493000000000       0.000000000000000E+000        
  0.000000000000000E+000  0.000000000000000E+000  0.000000000000000E+000        
  0.000000000000000E+000  0.000000000000000E+000  0.000000000000000E+000        
  0.813200000000000       0.342150000000000        1.00000000000000             
  0.000000000000000E+000  0.000000000000000E+000  0.000000000000000E+000        
  0.000000000000000E+000  0.000000000000000E+000  0.000000000000000E+000        
  0.289000000000000       0.463864000000000       0.000000000000000E+000        
   1.00000000000000       0.000000000000000E+000  0.000000000000000E+000        
  0.000000000000000E+000  0.000000000000000E+000  0.000000000000000E+000        
  0.100700000000000       0.250028000000000       0.000000000000000E+000        
  0.000000000000000E+000   1.00000000000000       0.000000000000000E+000        
  0.000000000000000E+000  0.000000000000000E+000  0.000000000000000E+000        
   8.18200000000000       0.000000000000000E+000  0.000000000000000E+000        
  0.000000000000000E+000  0.000000000000000E+000   1.00000000000000             
  0.000000000000000E+000  0.000000000000000E+000  0.000000000000000E+000        
   24.1860000000000       0.000000000000000E+000  0.000000000000000E+000        
  0.000000000000000E+000  0.000000000000000E+000  0.000000000000000E+000        
   1.00000000000000       0.000000000000000E+000  0.000000000000000E+000        
   71.4940000000000       0.000000000000000E+000  0.000000000000000E+000        
  0.000000000000000E+000  0.000000000000000E+000  0.000000000000000E+000        
  0.000000000000000E+000   1.00000000000000       0.000000000000000E+000        
  3.218000000000000E-002  0.000000000000000E+000  0.000000000000000E+000        
  0.000000000000000E+000  0.000000000000000E+000  0.000000000000000E+000        
  0.000000000000000E+000  0.000000000000000E+000   1.00000000000000             
    6    6                                                                      
   1.84800000000000        1.00000000000000       0.000000000000000E+000        
  0.000000000000000E+000  0.000000000000000E+000  0.000000000000000E+000        
  0.000000000000000E+000                                                        
  0.649000000000000       0.000000000000000E+000   1.00000000000000             
  0.000000000000000E+000  0.000000000000000E+000  0.000000000000000E+000        
  0.000000000000000E+000                                                        
  0.228000000000000       0.000000000000000E+000  0.000000000000000E+000        
   1.00000000000000       0.000000000000000E+000  0.000000000000000E+000        
  0.000000000000000E+000                                                        
   8.65600000000000       0.000000000000000E+000  0.000000000000000E+000        
  0.000000000000000E+000   1.00000000000000       0.000000000000000E+000        
  0.000000000000000E+000                                                        
   33.2130000000000       0.000000000000000E+000  0.000000000000000E+000        
  0.000000000000000E+000  0.000000000000000E+000   1.00000000000000             
  0.000000000000000E+000                                                        
  7.660000000000000E-002  0.000000000000000E+000  0.000000000000000E+000        
  0.000000000000000E+000  0.000000000000000E+000  0.000000000000000E+000        
   1.00000000000000                                                             
    4    4                                                                      
   1.41900000000000        1.00000000000000       0.000000000000000E+000        
  0.000000000000000E+000  0.000000000000000E+000                                
  0.485000000000000       0.000000000000000E+000   1.00000000000000             
  0.000000000000000E+000  0.000000000000000E+000                                
   24.6940000000000       0.000000000000000E+000  0.000000000000000E+000        
   1.00000000000000       0.000000000000000E+000                                
  0.187000000000000       0.000000000000000E+000  0.000000000000000E+000        
  0.000000000000000E+000   1.00000000000000                                     
    2    2                                                                      
   1.01100000000000        1.00000000000000       0.000000000000000E+000        
  0.424000000000000       0.000000000000000E+000   1.00000000000000             
          8.00000000    1    5    1    1    1    1    1                         
O #2   0.000000000000000   0.000000000000000  -0.703779920289992                
   16    9                                                                      
   61420.0000000000       9.000000000000001E-005 -2.000000000000000E-005        
  0.000000000000000E+000  0.000000000000000E+000  0.000000000000000E+000        
  0.000000000000000E+000  0.000000000000000E+000  0.000000000000000E+000        
  0.000000000000000E+000                                                        
   9199.00000000000       6.980000000000001E-004 -1.590000000000000E-004        
  0.000000000000000E+000  0.000000000000000E+000  0.000000000000000E+000        
  0.000000000000000E+000  0.000000000000000E+000  0.000000000000000E+000        
  0.000000000000000E+000                                                        
   2091.00000000000       3.664000000000000E-003 -8.290000000000000E-004        
  0.000000000000000E+000  0.000000000000000E+000  0.000000000000000E+000        
  0.000000000000000E+000  0.000000000000000E+000  0.000000000000000E+000        
  0.000000000000000E+000                                                        
   590.900000000000       1.521800000000000E-002 -3.508000000000000E-003        
  0.000000000000000E+000  0.000000000000000E+000  0.000000000000000E+000        
  0.000000000000000E+000  0.000000000000000E+000  0.000000000000000E+000        
  0.000000000000000E+000                                                        
   192.300000000000       5.242300000000000E-002 -1.215600000000000E-002        
  0.000000000000000E+000  0.000000000000000E+000  0.000000000000000E+000        
  0.000000000000000E+000  0.000000000000000E+000  0.000000000000000E+000        
  0.000000000000000E+000                                                        
   69.3200000000000       0.145921000000000      -3.626100000000000E-002        
  0.000000000000000E+000  0.000000000000000E+000  0.000000000000000E+000        
  0.000000000000000E+000  0.000000000000000E+000  0.000000000000000E+000        
  0.000000000000000E+000                                                        
   26.9700000000000       0.305258000000000      -8.299200000000000E-002        
  0.000000000000000E+000  0.000000000000000E+000  0.000000000000000E+000        
  0.000000000000000E+000  0.000000000000000E+000  0.000000000000000E+000        
  0.000000000000000E+000                                                        
   11.1000000000000       0.398508000000000      -0.152090000000000             
  0.000000000000000E+000  0.000000000000000E+000  0.000000000000000E+000        
  0.000000000000000E+000  0.000000000000000E+000  0.000000000000000E+000        
  0.000000000000000E+000                                                        
   4.68200000000000       0.216980000000000      -0.115331000000000             
  0.000000000000000E+000  0.000000000000000E+000  0.000000000000000E+000        
  0.000000000000000E+000  0.000000000000000E+000  0.000000000000000E+000        
  0.000000000000000E+000                                                        
   1.42800000000000       1.759400000000000E-002  0.288979000000000             
   1.00000000000000       0.000000000000000E+000  0.000000000000000E+000        
  0.000000000000000E+000  0.000000000000000E+000  0.000000000000000E+000        
  0.000000000000000E+000                                                        
  0.554700000000000      -2.502000000000000E-003  0.586128000000000             
  0.000000000000000E+000   1.00000000000000       0.000000000000000E+000        
  0.000000000000000E+000  0.000000000000000E+000  0.000000000000000E+000        
  0.000000000000000E+000                                                        
  0.206700000000000       9.540000000000000E-004  0.277624000000000             
  0.000000000000000E+000  0.000000000000000E+000   1.00000000000000             
  0.000000000000000E+000  0.000000000000000E+000  0.000000000000000E+000        
  0.000000000000000E+000                                                        
   12.9740000000000       0.000000000000000E+000  0.000000000000000E+000        
  0.000000000000000E+000  0.000000000000000E+000  0.000000000000000E+000        
   1.00000000000000       0.000000000000000E+000  0.000000000000000E+000        
  0.000000000000000E+000                                                        
   34.9000000000000       0.000000000000000E+000  0.000000000000000E+000        
  0.000000000000000E+000  0.000000000000000E+000  0.000000000000000E+000        
  0.000000000000000E+000   1.00000000000000       0.000000000000000E+000        
  0.000000000000000E+000                                                        
   93.8810000000000       0.000000000000000E+000  0.000000000000000E+000        
  0.000000000000000E+000  0.000000000000000E+000  0.000000000000000E+000        
  0.000000000000000E+000  0.000000000000000E+000   1.00000000000000             
  0.000000000000000E+000                                                        
  6.959000000000000E-002  0.000000000000000E+000  0.000000000000000E+000        
  0.000000000000000E+000  0.000000000000000E+000  0.000000000000000E+000        
  0.000000000000000E+000  0.000000000000000E+000  0.000000000000000E+000        
   1.00000000000000                                                             
   10    8                                                                      
   63.4200000000000       6.044000000000000E-003  0.000000000000000E+000        
  0.000000000000000E+000  0.000000000000000E+000  0.000000000000000E+000        
  0.000000000000000E+000  0.000000000000000E+000  0.000000000000000E+000        
   14.6600000000000       4.179900000000000E-002  0.000000000000000E+000        
  0.000000000000000E+000  0.000000000000000E+000  0.000000000000000E+000        
  0.000000000000000E+000  0.000000000000000E+000  0.000000000000000E+000        
   4.45900000000000       0.161143000000000       0.000000000000000E+000        
  0.000000000000000E+000  0.000000000000000E+000  0.000000000000000E+000        
  0.000000000000000E+000  0.000000000000000E+000  0.000000000000000E+000        
   1.53100000000000       0.356731000000000        1.00000000000000             
  0.000000000000000E+000  0.000000000000000E+000  0.000000000000000E+000        
  0.000000000000000E+000  0.000000000000000E+000  0.000000000000000E+000        
  0.530200000000000       0.448309000000000       0.000000000000000E+000        
   1.00000000000000       0.000000000000000E+000  0.000000000000000E+000        
  0.000000000000000E+000  0.000000000000000E+000  0.000000000000000E+000        
  0.175000000000000       0.244940000000000       0.000000000000000E+000        
  0.000000000000000E+000   1.00000000000000       0.000000000000000E+000        
  0.000000000000000E+000  0.000000000000000E+000  0.000000000000000E+000        
   14.4750000000000       0.000000000000000E+000  0.000000000000000E+000        
  0.000000000000000E+000  0.000000000000000E+000   1.00000000000000             
  0.000000000000000E+000  0.000000000000000E+000  0.000000000000000E+000        
   42.7300000000000       0.000000000000000E+000  0.000000000000000E+000        
  0.000000000000000E+000  0.000000000000000E+000  0.000000000000000E+000        
   1.00000000000000       0.000000000000000E+000  0.000000000000000E+000        
   126.140000000000       0.000000000000000E+000  0.000000000000000E+000        
  0.000000000000000E+000  0.000000000000000E+000  0.000000000000000E+000        
  0.000000000000000E+000   1.00000000000000       0.000000000000000E+000        
  5.348000000000000E-002  0.000000000000000E+000  0.000000000000000E+000        
  0.000000000000000E+000  0.000000000000000E+000  0.000000000000000E+000        
  0.000000000000000E+000  0.000000000000000E+000   1.00000000000000             
    6    6                                                                      
   3.77500000000000        1.00000000000000       0.000000000000000E+000        
  0.000000000000000E+000  0.000000000000000E+000  0.000000000000000E+000        
  0.000000000000000E+000                                                        
   1.30000000000000       0.000000000000000E+000   1.00000000000000             
  0.000000000000000E+000  0.000000000000000E+000  0.000000000000000E+000        
  0.000000000000000E+000                                                        
  0.444000000000000       0.000000000000000E+000  0.000000000000000E+000        
   1.00000000000000       0.000000000000000E+000  0.000000000000000E+000        
  0.000000000000000E+000                                                        
   14.9270000000000       0.000000000000000E+000  0.000000000000000E+000        
  0.000000000000000E+000   1.00000000000000       0.000000000000000E+000        
  0.000000000000000E+000                                                        
   57.5440000000000       0.000000000000000E+000  0.000000000000000E+000        
  0.000000000000000E+000  0.000000000000000E+000   1.00000000000000             
  0.000000000000000E+000                                                        
  0.154000000000000       0.000000000000000E+000  0.000000000000000E+000        
  0.000000000000000E+000  0.000000000000000E+000  0.000000000000000E+000        
   1.00000000000000                                                             
    4    4                                                                      
   2.66600000000000        1.00000000000000       0.000000000000000E+000        
  0.000000000000000E+000  0.000000000000000E+000                                
  0.859000000000000       0.000000000000000E+000   1.00000000000000             
  0.000000000000000E+000  0.000000000000000E+000                                
   26.4830000000000       0.000000000000000E+000  0.000000000000000E+000        
   1.00000000000000       0.000000000000000E+000                                
  0.324000000000000       0.000000000000000E+000  0.000000000000000E+000        
  0.000000000000000E+000   1.00000000000000                                     
    2    2                                                                      
   1.84600000000000        1.00000000000000       0.000000000000000E+000        
  0.714000000000000       0.000000000000000E+000   1.00000000000000             
FINISH                                                                          
 
********************************************************************************
 ONE- AND TWO-ELECTRON INTEGRALS OVER SYMMETRY-ADAPTED AOS ARE CALCULATED.

  SPHERICAL HARMONICS ARE USED.
  
  INTEGRALS LESS THAN  0.10E-13 ARE NEGLECTED.

  NUCLEAR REPULSION ENERGY :   27.2820193778 A.U.
  @MOLECU-I, ONE ELECTRON INTEGRALS (CPU/WALL):        0.06/       0.07 SECONDS.
  @TWOEL-I,    4708973 INTEGRALS OF SYMMETRY TYPE  I I I I
  @TWOEL-I,   20152022 INTEGRALS OF SYMMETRY TYPE  I J I J
  @TWOEL-I,   10620214 INTEGRALS OF SYMMETRY TYPE  I I J J
  @TWOEL-I,   14873328 INTEGRALS OF SYMMETRY TYPE  I J K L
  @TWOEL-I, TOTAL NUMBER OF 2-E INTEGRALS   50354537.
  @MOLECU-I, TWO ELECTRON INTEGRALS (CPU/WALL):      243.09/      33.08 SECONDS.
 @CHECKOUT-I, Total execution time (CPU/WALL):      243.18/      33.18 seconds.

Running with 14 threads/proc

--executable xvmol finished with status     0 in       33.23 seconds (walltime).
 --invoking executable--
/nfs/workspaces/public/cfour_mpi/bin/xvmol2ja
 @GETMEM-I,  Allocated    3814 MB of main memory.
 @CHECKOUT-I, Total execution time (CPU/WALL):        0.24/       0.10 seconds.
--executable xvmol2ja finished with status     0 in        0.15 seconds (walltime).
 --invoking executable--
/nfs/workspaces/public/cfour_mpi/bin/xvprop
 @GETMEM-I,  Allocated    3814 MB of main memory.
   Property integrals will be calculated.
    --------------------------------------------------------------
                                   Property evaluated at 
    Property type                X             Y             Z
    --------------------------------------------------------------
    Dipole moment               ----          ----          ----  
    Quadrupole moment           ----          ----          ----  
    Octopole moment             ----          ----          ----  
    Relativisitic corr.         ----          ----          ----  
    Second moment            0.0000000     0.0000000     0.0000000
    Electron density         0.0000000     0.0000000     1.0556206
    Electron density         0.0000000     0.0000000    -0.7037799
    Field gradient           0.0000000     0.0000000     1.0556206
    Field gradient           0.0000000     0.0000000    -0.7037799
    Potential                0.0000000     0.0000000     1.0556206
    Potential                0.0000000     0.0000000    -0.7037799
    --------------------------------------------------------------
 @CHECKOUT-I, Total execution time (CPU/WALL):        1.56/       1.59 seconds.
--executable xvprop finished with status     0 in        1.62 seconds (walltime).
 --invoking executable--
/nfs/workspaces/public/cfour_mpi/bin/xvscf
  There are  218 functions in the AO basis.

  There are 4 irreducible representations.

       Irrep        # of functions
         1                 86
         2                 52
         3                 52
         4                 28


  Parameters for SCF calculation: 
        SCF reference function:  RHF  
  Maximum number of iterations:  150
     Full symmetry point group: CXv 
     Computational point group: C2v 
        Initial density matrix: MOREAD                 
     SCF convergence tolerance: 10**(-10)
  DIIS convergence acceleration:  ON
          Latest start for DIIS:   8
                     DIIS order:   6

  Memory information:    2523578 words required.
  Fock matrices are constructed from AO integral file.
 @GETMEM-I,  Allocated      19 MB of main memory.
  Initialization and symmetry analysis required      0.001 seconds.

  Adding electric field perturbation to one-electron Hamiltonian.
  Field direction     : Z
  Field strength      : -0.0002000 a.u.

  @INITGES-I, Occupancies from core Hamiltonian:

          Alpha population by irrep:   5    1    1    0
           Beta population by irrep:   5    1    1    0


 total no. of electrons in initial guess :  0.000000000000000E+000
  --------------------------------------------------------------------
  Iteration         Total Energy            Largest Density Difference
  --------------------------------------------------------------------
       0            27.282160074665089              0.0000000000D+00
   current occupation vector 
     5  1  1  0
     5  1  1  0
       1           -89.705721470186106              0.2067334317D+02
   current occupation vector 
     5  1  1  0
     5  1  1  0
       2           -91.695957882596673              0.1224650192D+03
   current occupation vector 
     5  1  1  0
     5  1  1  0
       3          -104.299814878827647              0.1224834908D+03
   current occupation vector 
     4  2  1  0
     4  2  1  0
       4          -102.164232137362092              0.1833319591D+02
   current occupation vector 
     5  1  1  0
     5  1  1  0
       5          -106.462052458785763              0.1833180391D+02
   current occupation vector 
     4  2  1  0
     4  2  1  0
       6          -103.858591896303295              0.1366304199D+02
   current occupation vector 
     5  1  1  0
     5  1  1  0
       7          -105.400840684598251              0.1338716163D+02
   current occupation vector 
     5  1  1  0
     5  1  1  0
       8          -103.004374810317842              0.4851586842D+01
   current occupation vector 
     5  1  1  0
     5  1  1  0
       9          -112.095166963849550              0.3058310032D+01
   current occupation vector 
     5  1  1  0
     5  1  1  0
      10          -112.584749117362378              0.6666261792D+00
   current occupation vector 
     5  1  1  0
     5  1  1  0
      11          -112.668799868339875              0.2228343064D+00
   current occupation vector 
     5  1  1  0
     5  1  1  0
      12          -112.670966334927812              0.4415641398D-01
   current occupation vector 
     5  1  1  0
     5  1  1  0
      13          -112.671057658779233              0.1304230556D-01
   current occupation vector 
     5  1  1  0
     5  1  1  0
      14          -112.671064847306525              0.3808607374D-02
   current occupation vector 
     5  1  1  0
     5  1  1  0
      15          -112.671065988781010              0.1848446366D-02
   current occupation vector 
     5  1  1  0
     5  1  1  0
      16          -112.671066064949684              0.4499110603D-03
   current occupation vector 
     5  1  1  0
     5  1  1  0
      17          -112.671066067628260              0.9602167922D-04
   current occupation vector 
     5  1  1  0
     5  1  1  0
      18          -112.671066067689338              0.1069259778D-04
   current occupation vector 
     5  1  1  0
     5  1  1  0
      19          -112.671066067691442              0.1615170550D-05
   current occupation vector 
     5  1  1  0
     5  1  1  0
      20          -112.671066067690532              0.4996808660D-06
   current occupation vector 
     5  1  1  0
     5  1  1  0
      21          -112.671066067691982              0.8403299634D-07
   current occupation vector 
     5  1  1  0
     5  1  1  0
      22          -112.671066067691328              0.1875203814D-07
   current occupation vector 
     5  1  1  0
     5  1  1  0
      23          -112.671066067691413              0.4848484281D-08
   current occupation vector 
     5  1  1  0
     5  1  1  0
      24          -112.671066067691555              0.1531805793D-08
   current occupation vector 
     5  1  1  0
     5  1  1  0
      25          -112.671066067689196              0.6322067314D-09
   current occupation vector 
     5  1  1  0
     5  1  1  0
      26          -112.671066067690390              0.1803772687D-09
   current occupation vector 
     5  1  1  0
     5  1  1  0
      27          -112.671066067691129              0.1538411620D-09
   current occupation vector 
     5  1  1  0
     5  1  1  0
      28          -112.671066067691612              0.1850894438D-09
   current occupation vector 
     5  1  1  0
     5  1  1  0

  SCF has converged.

 Density matrix saved to file den.dat
 total electron number:   14.0000000000004     
     E(SCF)=      -112.671066067690816              0.8689571285D-10

  Eigenvector printing suppressed.

 @PUTMOS-I, Writing converged MOs to NEWMOS. 
 @PUTMOS-I, Symmetry   1 Full Blocks 21 Partial Blocksize   2
 @PUTMOS-I, Symmetry   2 Full Blocks 13 Partial Blocksize   0
 @PUTMOS-I, Symmetry   3 Full Blocks 13 Partial Blocksize   0
 @PUTMOS-I, Symmetry   4 Full Blocks  7 Partial Blocksize   0
 @PUTFOCK-I, Writing converged Fock matrix to NEWFOCK. 
 @PUTFOCK-I, Symmetry   1 Full Blocks 21 Partial Blocksize   2
 @PUTFOCK-I, Symmetry   2 Full Blocks 13 Partial Blocksize   0
 @PUTFOCK-I, Symmetry   3 Full Blocks 13 Partial Blocksize   0
 @PUTFOCK-I, Symmetry   4 Full Blocks  7 Partial Blocksize   0


 
  ORBITAL EIGENVALUES (ALPHA)  (1H = 27.2113834 eV)

       MO #        E(hartree)               E(eV)           FULLSYM    COMPSYM
       ----   --------------------   --------------------   -------   ---------
    1     1         -20.6488298006        -561.8832244649     SG+        A1 (1)
    2     2         -11.2715940774        -306.7156679680     SG+        A1 (1)
    3     3          -1.6605082050         -45.1847254054     SG+        A1 (1)
    4     4          -0.8207075688         -22.3325883132     SG+        A1 (1)
    5    87          -0.7425033815         -20.2045441905      PI        B1 (2)
    6   139          -0.7425033815         -20.2045441905      PI        B2 (3)
    7     5          -0.5256661843         -14.3041040804     SG+        A1 (1)
  +++++++++++++++++++++++++++++++++++++++++++++++++++++++++++++++++++++++++++++
    8     6           0.0569966458           1.5509575809     SG+        A1 (1)
    9   140           0.0644235886           1.7530549704      PI        B2 (3)
   10    88           0.0644235886           1.7530549704      PI        B1 (2)
   11     7           0.0761105321           2.0710728692     SG+        A1 (1)
   12    89           0.1548128019           4.2126705073      PI        B1 (2)
   13   141           0.1548128019           4.2126705073      PI        B2 (3)
   14     8           0.1567340016           4.2649490107     SG+        A1 (1)
   15   142           0.2062240516           5.6116417356      PI        B2 (3)
   16    90           0.2062240516           5.6116417356      PI        B1 (2)
   17     9           0.2266065261           6.1662770630     SG+        A1 (1)
   18   191           0.2267300673           6.1696387901      DE        A2 (4)
   19    10           0.2267300673           6.1696387901      DE        A1 (1)
   20    11           0.3019365202           8.2161104142     SG+        A1 (1)
   21    91           0.3464902763           9.4284797530      PI        B1 (2)
   22   143           0.3464902763           9.4284797530      PI        B2 (3)
   23    12           0.3997782154          10.8785182952     SG+        A1 (1)
   24    92           0.4085260329          11.1165585105      PI        B1 (2)
   25   144           0.4085260329          11.1165585105      PI        B2 (3)
   26    13           0.5078428549          13.8191066330     SG+        A1 (1)
   27   192           0.5191404959          14.1265310714      DE        A2 (4)
   28    14           0.5191404959          14.1265310715      DE        A1 (1)
   29    93           0.6179159967          16.8143490959      PI        B1 (2)
   30   145           0.6179159967          16.8143490960      PI        B2 (3)
   31    15           0.6594796017          17.9453522871     SG+        A1 (1)
   32   146           0.7497813532          20.4025878691      PH        B2 (3)
   33    94           0.7497813532          20.4025878691      PH        B1 (2)
   34    16           0.7691471835          20.9295589016      DE        A1 (1)
   35   193           0.7691471835          20.9295589016      DE        A2 (4)
   36    17           0.7972843225          21.6952093779     SG+        A1 (1)
   37    95           0.8489238051          23.1003911384      PI        B1 (2)
   38   147           0.8489238051          23.1003911385      PI        B2 (3)
   39    96           0.8693467371          23.6561273708      PI        B1 (2)
   40   148           0.8693467371          23.6561273709      PI        B2 (3)
   41    18           0.8798762750          23.9426506633     SG+        A1 (1)
   42    19           0.9097087454          24.7544334532      DE        A1 (1)
   43   194           0.9097087454          24.7544334532      DE        A2 (4)
   44    20           0.9657305520          26.2788643125     SG+        A1 (1)
   45    97           1.1323371628          30.8124606761      PI        B1 (2)
   46   149           1.1323371628          30.8124606761      PI        B2 (3)
   47    21           1.3629478894          37.0876975723     SG+        A1 (1)
   48   150           1.4597952785          39.7230490096      PH        B2 (3)
   49    98           1.4597952785          39.7230490096      PH        B1 (2)
   50    22           1.4955653463          40.6964020367      DE        A1 (1)
   51   195           1.4955653463          40.6964020367      DE        A2 (4)
   52   151           1.5237247568          41.4626585521      PI        B2 (3)
   53    99           1.5237247568          41.4626585521      PI        B1 (2)
   54    23           1.5624745018          42.5170927221     SG+        A1 (1)
   55    24           1.6643340819          45.2888328069     SG+        A1 (1)
   56    25           1.7732030959          48.2513092883      DE        A1 (1)
   57   196           1.7732030959          48.2513092885      DE        A2 (4)
   58    26           1.7790289692          48.4098393614     SG+        A1 (1)
   59   100           1.8550811107          50.4793233416      PI        B1 (2)
   60   152           1.8550811107          50.4793233416      PI        B2 (3)
   61   101           2.0208175018          54.9892398240      PI        B1 (2)
   62   153           2.0208175018          54.9892398240      PI        B2 (3)
   63   197           2.1161491537          57.5833459528      PI        A2 (4)
   64    27           2.1161491537          57.5833459528      PI        A1 (1)
   65    28           2.2384113879          60.9102704828     SG+        A1 (1)
   66    29           2.2433958476          61.0459045282      DE        A1 (1)
   67   198           2.2433958476          61.0459045282      DE        A2 (4)
   68   154           2.2644263446          61.6181734450      PH        B2 (3)
   69   102           2.2644263446          61.6181734450      PH        B1 (2)
   70    30           2.3508389454          63.9695798560     SG+        A1 (1)
   71   103           2.3584479698          64.1766319361      PI        B1 (2)
   72   155           2.3584479698          64.1766319361      PI        B2 (3)
   73    31           2.3935899989          65.1328951619      DE        A1 (1)
   74   199           2.3935899989          65.1328951619      DE        A2 (4)
   75   104           2.4402181290          66.4017110880      PH        B1 (2)
   76   156           2.4402181290          66.4017110880      PH        B2 (3)
   77   157           2.6107242651          71.0414189283      PI        B2 (3)
   78   105           2.6107242651          71.0414189283      PI        B1 (2)
   79    32           2.6520191866          72.1651108711     SG+        A1 (1)
   80   158           3.0658766821          83.4267458537      PI        B2 (3)
   81   106           3.0658766821          83.4267458538      PI        B1 (2)
   82    33           3.1601559308          85.9922146355      DE        A1 (1)
   83   200           3.1601559308          85.9922146362      DE        A2 (4)
   84    34           3.1845454521          86.6558872516     SG+        A1 (1)
   85    35           3.3540100025          91.2672521068     SG+        A1 (1)
   86   159           3.7400376685         101.7715989282      PI        B2 (3)
   87   107           3.7400376685         101.7715989282      PI        B1 (2)
   88   201           3.7793515223         102.8413832756      PI        A2 (4)
   89    36           3.7793515223         102.8413832756      PI        A1 (1)
   90    37           4.0070584913         109.0376049132     SG+        A1 (1)
   91   108           4.0594721679         110.4638535624      PH        B1 (2)
   92   160           4.0594721679         110.4638535624      PH        B2 (3)
   93   202           4.1803874201         113.7541248479      DE        A2 (4)
   94    38           4.1803874201         113.7541248479      DE        A1 (1)
   95   109           4.2197337096         114.8247918177      PI        B1 (2)
   96   161           4.2197337096         114.8247918177      PI        B2 (3)
   97    39           4.3561760177         118.5375757745     SG+        A1 (1)
   98    40           4.4738052937         121.7384311039      DE        A1 (1)
   99   203           4.4738052937         121.7384311040      DE        A2 (4)
  100   162           4.5271177851         123.1891377467      PH        B2 (3)
  101   110           4.5271177851         123.1891377467      PH        B1 (2)
  102    41           4.7207533492         128.4582293216     SG+        A1 (1)
  103   163           4.9343887653         134.2715445374      PI        B2 (3)
  104   111           4.9343887653         134.2715445375      PI        B1 (2)
  105    42           5.1744801138         140.8047622715     SG+        A1 (1)
  106    43           5.2067873264         141.6838862213      DE        A1 (1)
  107   204           5.2067873264         141.6838862220      DE        A2 (4)
  108   164           5.3513031019         145.6163603958      PI        B2 (3)
  109   112           5.3513031019         145.6163603959      PI        B1 (2)
  110    44           5.9319273994         161.4159507647      PI        A1 (1)
  111   205           5.9319273994         161.4159507647      PI        A2 (4)
  112   165           6.0226465395         163.8845440686      PI        B2 (3)
  113   113           6.0226465395         163.8845440686      PI        B1 (2)
  114    45           6.1455131796         167.2279153203     SG+        A1 (1)
  115   114           6.3165446577         171.8819184441      PH        B1 (2)
  116   166           6.3165446577         171.8819184441      PH        B2 (3)
  117    46           6.3512434720         172.8261211844      DE        A1 (1)
  118   206           6.3512434720         172.8261211844      DE        A2 (4)
  119    47           6.3623568187         173.1285307204     SG+        A1 (1)
  120   167           6.4301717362         174.9738684407      PI        B2 (3)
  121   115           6.4301717362         174.9738684407      PI        B1 (2)
  122   116           6.5637903713         178.6098163504      PH        B1 (2)
  123   168           6.5637903713         178.6098163504      PH        B2 (3)
  124    48           6.7875580887         184.6988455014      DE        A1 (1)
  125   207           6.7875580887         184.6988455018      DE        A2 (4)
  126    49           7.1720245379         195.1607094538     SG+        A1 (1)
  127   169           8.0067753126         217.8754328276      PI        B2 (3)
  128   117           8.0067753126         217.8754328276      PI        B1 (2)
  129    50           8.2098960234         223.4026283671      DE        A1 (1)
  130   208           8.2098960234         223.4026283680      DE        A2 (4)
  131    51           8.6874825930         236.3984196195     SG+        A1 (1)
  132    52           8.8781720494         241.5873435267     SG+        A1 (1)
  133   170           9.0151970455         245.3159832327      PI        B2 (3)
  134   118           9.0151970455         245.3159832329      PI        B1 (2)
  135    53           9.9010472168         269.4211918780     SG+        A1 (1)
  136   171          10.2259078122         278.2610980910      PI        B2 (3)
  137   119          10.2259078122         278.2610980911      PI        B1 (2)
  138   209          10.6094666874         288.6982657002      PI        A2 (4)
  139    54          10.6094666874         288.6982657002      PI        A1 (1)
  140   172          11.0774061583         301.4315460501      PH        B2 (3)
  141   120          11.0774061583         301.4315460501      PH        B1 (2)
  142    55          11.3763818430         309.5670880354      DE        A1 (1)
  143   210          11.3763818430         309.5670880354      DE        A2 (4)
  144    56          11.4093231983         310.4634678841     SG+        A1 (1)
  145   121          11.4840374866         312.4965470267      PI        B1 (2)
  146   173          11.4840374866         312.4965470267      PI        B2 (3)
  147   122          11.8811989493         323.3038598621      PH        B1 (2)
  148   174          11.8811989493         323.3038598621      PH        B2 (3)
  149    57          12.4942332702         339.9853718058      DE        A1 (1)
  150   211          12.4942332703         339.9853718068      DE        A2 (4)
  151    58          13.0212045211         354.3249885544     SG+        A1 (1)
  152    59          13.2166277345         359.6427245395      DE        A1 (1)
  153   212          13.2166277345         359.6427245395      DE        A2 (4)
  154   175          13.3373765208         362.9284660580      PI        B2 (3)
  155   123          13.3373765208         362.9284660581      PI        B1 (2)
  156    60          14.1982482516         386.3539767822     SG+        A1 (1)
  157   176          15.2979230610         416.2776496354      PI        B2 (3)
  158   124          15.2979230610         416.2776496354      PI        B1 (2)
  159    61          15.6500152605         425.8585654692     SG+        A1 (1)
  160    62          19.0525209230         518.4454515717     SG+        A1 (1)
  161   177          19.7217749778         536.6567802507      PI        B2 (3)
  162   125          19.7217749778         536.6567802507      PI        B1 (2)
  163    63          21.7960045037         593.0994351378     SG+        A1 (1)
  164    64          26.7934691417         729.0873614303      DE        A1 (1)
  165   213          26.7934691417         729.0873614306      DE        A2 (4)
  166   178          27.9359837609         760.1767647740      PI        B2 (3)
  167   126          27.9359837609         760.1767647740      PI        B1 (2)
  168    65          29.2111216616         794.8750310768     SG+        A1 (1)
  169   179          34.0594165599         926.8038423928      PI        B2 (3)
  170   127          34.0594165599         926.8038423930      PI        B1 (2)
  171    66          36.3324528105         988.6563032878     SG+        A1 (1)
  172    67          37.5047547838        1020.5562617454     SG+        A1 (1)
  173   214          47.2447301386        1285.5944654314      DE        A2 (4)
  174    68          47.2447301386        1285.5944654314      DE        A1 (1)
  175   128          48.2288280271        1312.3731303782      PI        B1 (2)
  176   180          48.2288280271        1312.3731303782      PI        B2 (3)
  177    69          48.8593092746        1329.5293973311     SG+        A1 (1)
  178    70          65.0803512484        1770.9263896264     SG+        A1 (1)
  179   129          67.1509283226        1827.2696562533      PI        B1 (2)
  180   181          67.1509283226        1827.2696562533      PI        B2 (3)
  181    71          68.7492354248        1870.7618036002     SG+        A1 (1)
  182   130          98.7819626621        2687.9938590021      PH        B1 (2)
  183   182          98.7819626621        2687.9938590021      PH        B2 (3)
  184   215          98.8360914354        2689.4667778052      DE        A2 (4)
  185    72          98.8360914354        2689.4667778052      DE        A1 (1)
  186   183          98.8889559808        2690.9052952206      PI        B2 (3)
  187   131          98.8889559808        2690.9052952206      PI        B1 (2)
  188    73          98.9508848855        2692.5904663888     SG+        A1 (1)
  189   184         103.3059301351        2811.0972723997      PH        B2 (3)
  190   132         103.3059301351        2811.0972723997      PH        B1 (2)
  191    74         103.3783384001        2813.0676014612      DE        A1 (1)
  192   216         103.3783384002        2813.0676014620      DE        A2 (4)
  193   133         103.4794531727        2815.8190743033      PI        B1 (2)
  194   185         103.4794531727        2815.8190743033      PI        B2 (3)
  195    75         103.5966138736        2819.0071790558     SG+        A1 (1)
  196   217         115.3796717911        3139.6404856729      DE        A2 (4)
  197    76         115.3796717911        3139.6404856729      DE        A1 (1)
  198   186         115.9428033741        3154.9640750845      PI        B2 (3)
  199   134         115.9428033741        3154.9640750845      PI        B1 (2)
  200    77         116.4654934778        3169.1871958946     SG+        A1 (1)
  201   187         117.2777033416        3191.2885499005      PI        B2 (3)
  202   135         117.2777033416        3191.2885499010      PI        B1 (2)
  203    78         119.2406860510        3244.7040250138     SG+        A1 (1)
  204    79         123.5120323262        3360.9332661407     SG+        A1 (1)
  205    80         198.6661878410        5405.9818059592      DE        A1 (1)
  206   218         198.6661878411        5405.9818059592      DE        A2 (4)
  207   136         199.2118761716        5420.8307403393      PI        B1 (2)
  208   188         199.2118761716        5420.8307403397      PI        B2 (3)
  209    81         199.5598138661        5430.2986063442     SG+        A1 (1)
  210    82         217.4940732115        5918.3146133869     SG+        A1 (1)
  211   137         225.5397388210        6137.2483049929      PI        B1 (2)
  212   189         225.5397388210        6137.2483049929      PI        B2 (3)
  213    83         226.8172359143        6172.0107681915     SG+        A1 (1)
  214   190         395.6808868109       10767.0243150645      PI        B2 (3)
  215   138         395.6808868110       10767.0243150655      PI        B1 (2)
  216    84         397.1267754786       10806.3689459527     SG+        A1 (1)
  217    85         509.9362304918       13876.0702774641     SG+        A1 (1)
  218    86         896.3901108801       24392.0149831281     SG+        A1 (1)


  VSCF finished.

 @CHECKOUT-I, Total execution time (CPU/WALL):       53.24/      13.88 seconds.
--executable xvscf finished with status     0 in       13.91 seconds (walltime).
 --invoking executable--
/nfs/workspaces/public/cfour_mpi/bin/xvtran
 @GETMEM-I,  Allocated    3814 MB of main memory.
  Full RHF integral transformation
  Transformation of IIII integrals :
  1 pass through the AO integral file was required.
     4708973 AO integrals were read.
     8914276 MO integrals were written to HF2.
  Transformation of IIJJ integrals :
  1 pass through the AO integral file was required.
    10620214 AO integrals were read.
    14750557 MO integrals were written to HF2.
  Transformation of IJIJ integrals :
  1 pass through the AO integral file was required.
    20152022 AO integrals were read.
    28088727 MO integrals were written to HF2.
  Transformation of IJKL integrals :
  1 pass through the AO integral file was required.
    14873328 AO integrals were read.
    19025802 MO integrals were written to HF2.
  Summary of active molecular orbitals: 
------------------------------------------------------------------------
 
  Index      Eigenvalue    Symmetry    Index      Eigenvalue    Symmetry
------------------------------------------------------------------------
     1       -20.6488298        1       110         4.2197337        2
     2       -11.2715941        1       111         4.5271178        2
     3        -1.6605082        1       112         4.9343888        2
     4        -0.8207076        1       113         5.3513031        2
     5        -0.5256662        1       114         6.0226465        2
     6        -0.7425034        2       115         6.3165447        2
     7        -0.7425034        3       116         6.4301717        2
     8         0.0569966        1       117         6.5637904        2
     9         0.0761105        1       118         8.0067753        2
    10         0.1567340        1       119         9.0151970        2
    11         0.2266065        1       120        10.2259078        2
    12         0.2267301        1       121        11.0774062        2
    13         0.3019365        1       122        11.4840375        2
    14         0.3997782        1       123        11.8811989        2
    15         0.5078429        1       124        13.3373765        2
    16         0.5191405        1       125        15.2979231        2
    17         0.6594796        1       126        19.7217750        2
    18         0.7691472        1       127        27.9359838        2
    19         0.7972843        1       128        34.0594166        2
    20         0.8798763        1       129        48.2288280        2
    21         0.9097087        1       130        67.1509283        2
    22         0.9657306        1       131        98.7819627        2
    23         1.3629479        1       132        98.8889560        2
    24         1.4955653        1       133       103.3059301        2
    25         1.5624745        1       134       103.4794532        2
    26         1.6643341        1       135       115.9428034        2
    27         1.7732031        1       136       117.2777033        2
    28         1.7790290        1       137       199.2118762        2
    29         2.1161492        1       138       225.5397388        2
    30         2.2384114        1       139       395.6808868        2
    31         2.2433958        1       140         0.0644236        3
    32         2.3508389        1       141         0.1548128        3
    33         2.3935900        1       142         0.2062241        3
    34         2.6520192        1       143         0.3464903        3
    35         3.1601559        1       144         0.4085260        3
    36         3.1845455        1       145         0.6179160        3
    37         3.3540100        1       146         0.7497814        3
    38         3.7793515        1       147         0.8489238        3
    39         4.0070585        1       148         0.8693467        3
    40         4.1803874        1       149         1.1323372        3
    41         4.3561760        1       150         1.4597953        3
    42         4.4738053        1       151         1.5237248        3
    43         4.7207533        1       152         1.8550811        3
    44         5.1744801        1       153         2.0208175        3
    45         5.2067873        1       154         2.2644263        3
    46         5.9319274        1       155         2.3584480        3
    47         6.1455132        1       156         2.4402181        3
    48         6.3512435        1       157         2.6107243        3
    49         6.3623568        1       158         3.0658767        3
    50         6.7875581        1       159         3.7400377        3
    51         7.1720245        1       160         4.0594722        3
    52         8.2098960        1       161         4.2197337        3
    53         8.6874826        1       162         4.5271178        3
    54         8.8781720        1       163         4.9343888        3
    55         9.9010472        1       164         5.3513031        3
    56        10.6094667        1       165         6.0226465        3
    57        11.3763818        1       166         6.3165447        3
    58        11.4093232        1       167         6.4301717        3
    59        12.4942333        1       168         6.5637904        3
    60        13.0212045        1       169         8.0067753        3
    61        13.2166277        1       170         9.0151970        3
    62        14.1982483        1       171        10.2259078        3
    63        15.6500153        1       172        11.0774062        3
    64        19.0525209        1       173        11.4840375        3
    65        21.7960045        1       174        11.8811989        3
    66        26.7934691        1       175        13.3373765        3
    67        29.2111217        1       176        15.2979231        3
    68        36.3324528        1       177        19.7217750        3
    69        37.5047548        1       178        27.9359838        3
    70        47.2447301        1       179        34.0594166        3
    71        48.8593093        1       180        48.2288280        3
    72        65.0803512        1       181        67.1509283        3
    73        68.7492354        1       182        98.7819627        3
    74        98.8360914        1       183        98.8889560        3
    75        98.9508849        1       184       103.3059301        3
    76       103.3783384        1       185       103.4794532        3
    77       103.5966139        1       186       115.9428034        3
    78       115.3796718        1       187       117.2777033        3
    79       116.4654935        1       188       199.2118762        3
    80       119.2406861        1       189       225.5397388        3
    81       123.5120323        1       190       395.6808868        3
    82       198.6661878        1       191         0.2267301        4
    83       199.5598139        1       192         0.5191405        4
    84       217.4940732        1       193         0.7691472        4
    85       226.8172359        1       194         0.9097087        4
    86       397.1267755        1       195         1.4955653        4
    87       509.9362305        1       196         1.7732031        4
    88       896.3901109        1       197         2.1161492        4
    89         0.0644236        2       198         2.2433958        4
    90         0.1548128        2       199         2.3935900        4
    91         0.2062241        2       200         3.1601559        4
    92         0.3464903        2       201         3.7793515        4
    93         0.4085260        2       202         4.1803874        4
    94         0.6179160        2       203         4.4738053        4
    95         0.7497814        2       204         5.2067873        4
    96         0.8489238        2       205         5.9319274        4
    97         0.8693467        2       206         6.3512435        4
    98         1.1323372        2       207         6.7875581        4
    99         1.4597953        2       208         8.2098960        4
   100         1.5237248        2       209        10.6094667        4
   101         1.8550811        2       210        11.3763818        4
   102         2.0208175        2       211        12.4942333        4
   103         2.2644263        2       212        13.2166277        4
   104         2.3584480        2       213        26.7934691        4
   105         2.4402181        2       214        47.2447301        4
   106         2.6107243        2       215        98.8360914        4
   107         3.0658767        2       216       103.3783384        4
   108         3.7400377        2       217       115.3796718        4
   109         4.0594722        2       218       198.6661878        4
------------------------------------------------------------------------
  -20.6488298005783       -11.2715940773522       -1.66050820501013     
 -0.820707568774377      -0.525666184262535      -0.742503381527386     
 -0.742503381526411       5.699664578193310E-002  7.611053208035354E-002
  0.156734001649541       0.226606526114723       0.226730067319081     
  0.301936520220304       0.399778215437562       0.507842854948475     
  0.519140495865541       0.659479601727838       0.769147183514277     
  0.797284322482000       0.879876274990376       0.909708745390647     
  0.965730552035725        1.36294788938476        1.49556534625333     
   1.56247450183339        1.66433408185128        1.77320309589047     
   1.77902896923077        2.11614915369398        2.23841138788997     
   2.24339584764221        2.35083894544084        2.39358999887955     
   2.65201918661322        3.16015593075416        3.18454545209312     
   3.35401000254969        3.77935152226147        4.00705849130627     
   4.18038742006486        4.35617601766423        4.47380529370271     
   4.72075334918945        5.17448011377123        5.20678732641220     
   5.93192739935154        6.14551317961615        6.35124347203949     
   6.36235681866951        6.78755808869884        7.17202453785403     
   8.20989602341006        8.68748259301869        8.87817204937427     
   9.90104721680403        10.6094666873938        11.3763818430271     
   11.4093231983246        12.4942332702481        13.0212045211327     
[...]
 Convergence information after     6 iterations: 
 Largest element of residual vector : -0.34205860E-03.
 Largest element of DIIS residual   : -0.88668346E-04.
 Convergence information after     7 iterations: 
 Largest element of residual vector : -0.59672393E-04.
 Largest element of DIIS residual   : -0.27040577E-04.
 Convergence information after     8 iterations: 
 Largest element of residual vector : -0.16598632E-04.
 Largest element of DIIS residual   :  0.97418379E-05.
 Convergence information after     9 iterations: 
 Largest element of residual vector :  0.50216627E-05.
 Largest element of DIIS residual   :  0.23169258E-05.
 Convergence information after    10 iterations: 
 Largest element of residual vector :  0.18214892E-05.
 Largest element of DIIS residual   :  0.97804095E-06.
 Convergence information after    11 iterations: 
 Largest element of residual vector :  0.50754617E-06.
 Largest element of DIIS residual   :  0.28176103E-06.
 Convergence information after    12 iterations: 
 Largest element of residual vector :  0.20120492E-06.
 Largest element of DIIS residual   :  0.13073381E-06.
 Convergence information after    13 iterations: 
 Largest element of residual vector :  0.82214334E-07.
 Largest element of DIIS residual   :  0.59734244E-07.
 Perturbed amplitude equations converged in    13 iterations.
  Dominant contributions to perturbed wavefunction:
    7    7  142   37   0.2504361733 ABAB
    7    7   37  142   0.2504361733 ABAB
    7    7  142   63   0.1977313171 ABAB
    7    7   63  142   0.1977313171 ABAB
    5    5  142   43   0.1943185486 ABAB
    5    5   43  142   0.1943185486 ABAB
    7    7  142   49   0.1942449570 ABAB
    7    7   49  142   0.1942449570 ABAB
    7    6   37   91   0.1729877952 ABAB
    6    7   91   37   0.1729877952 ABAB
    7    7  143   37   0.1622021268 ABAB
    7    7   37  143   0.1622021268 ABAB
    7    7  142   43   0.1581028075 ABAB
    7    7   43  142   0.1581028075 ABAB
    5    5  142   30  -0.1577389670 ABAB
    5    5   30  142  -0.1577389670 ABAB
    7    7  142   28   0.1565794389 ABAB
    7    7   28  142   0.1565794389 ABAB
    5    5  142   54   0.1556555585 ABAB
    5    5   54  142   0.1556555585 ABAB
  norm of converged amps    3.02128709381467     
 Starting iterative solution of the perturbed Lambda equations.
 The DIIS procedure is used to accelerate convergence.
 Convergence criterion is 10**(-7).
 Maximum number of iterations is 100.
 Convergence information after     1 iterations: 
 Largest element of residual vector : -0.57997992E-01.
 Largest element of DIIS residual   : -0.57997992E-01.
 Convergence information after     2 iterations: 
 Largest element of residual vector :  0.54120171E-02.
 Largest element of DIIS residual   :  0.64554385E-02.
 Convergence information after     3 iterations: 
 Largest element of residual vector : -0.33682899E-02.
 Largest element of DIIS residual   : -0.29892809E-02.
 Convergence information after     4 iterations: 
 Largest element of residual vector : -0.20694562E-02.
 Largest element of DIIS residual   : -0.15333364E-02.
 Convergence information after     5 iterations: 
 Largest element of residual vector : -0.10547849E-02.
 Largest element of DIIS residual   : -0.46498672E-03.
 Convergence information after     6 iterations: 
 Largest element of residual vector : -0.31890110E-03.
 Largest element of DIIS residual   : -0.79776371E-04.
 Convergence information after     7 iterations: 
 Largest element of residual vector : -0.53610941E-04.
 Largest element of DIIS residual   : -0.22504119E-04.
 Convergence information after     8 iterations: 
 Largest element of residual vector : -0.13624034E-04.
 Largest element of DIIS residual   :  0.86223723E-05.
 Convergence information after     9 iterations: 
 Largest element of residual vector :  0.45154631E-05.
 Largest element of DIIS residual   :  0.20366567E-05.
 Convergence information after    10 iterations: 
 Largest element of residual vector :  0.16097783E-05.
 Largest element of DIIS residual   :  0.88927696E-06.
 Convergence information after    11 iterations: 
 Largest element of residual vector :  0.47366116E-06.
 Largest element of DIIS residual   :  0.27081188E-06.
 Convergence information after    12 iterations: 
 Largest element of residual vector :  0.19012096E-06.
 Largest element of DIIS residual   :  0.12175278E-06.
 Convergence information after    13 iterations: 
 Largest element of residual vector :  0.77174723E-07.
 Largest element of DIIS residual   :  0.54278039E-07.
 Perturbed Lambda equations converged in    13 iterations.
  Dominant contributions to perturbed wavefunction:
    7    7  142   37   0.2414502948 ABAB
    7    7   37  142   0.2414502948 ABAB
    7    7  142   63   0.1904340037 ABAB
    7    7   63  142   0.1904340037 ABAB
    7    7  142   49   0.1873300773 ABAB
    7    7   49  142   0.1873300773 ABAB
    5    5  142   43   0.1867598319 ABAB
    5    5   43  142   0.1867598319 ABAB
    7    6   37   91   0.1651892547 ABAB
    6    7   91   37   0.1651892547 ABAB
    7    7  143   37   0.1569724827 ABAB
    7    7   37  143   0.1569724827 ABAB
    5    5  142   30  -0.1518407869 ABAB
    5    5   30  142  -0.1518407869 ABAB
    7    7  142   43   0.1513073299 ABAB
    7    7   43  142   0.1513073299 ABAB
    7    7  142   28   0.1504059981 ABAB
    7    7   28  142   0.1504059981 ABAB
    5    5  142   54   0.1496085071 ABAB
    5    5   54  142   0.1496085071 ABAB
        The DBOC first-order density matrix is being calculated 
             (Symmetry block 3, perturbation   2)
 term   10.9731945142392     
 final tnorm  0.909485196208452     
  norm contr. I: |<0|L dT/dx|0>|^2   0.000000000000000E+000
  norm contr. II: <0|[nabla(1+L)e-T][nabla e^T]|0>   10.9731945142392     
  total norm contribution   10.9731945142392     
 oo  1.201910282764460E-002
 vv  -73.2657775376695     
 vo  8.532520810568857E-003
  Correlated perturbed 1-el contribution to DBOC  -73.2452259140313       cm**-1
  SUM_I |dc_I/dx|^2 contribution to DBOC   36.7097113361813       cm**-1
 
 
  The total diagonal Born-Oppenheimer correction (DBOC) is:      0.0038942158 a.u.
  The total diagonal Born-Oppenheimer correction (DBOC) is:        854.681575 cm-1
 
 Total CC energy including DBOC  -113.145705499340     
 First-order density matrix is being calculated  (Symmetry block 3, perturbation   2)
 Calculation of the contributions of <pq||rs> to dI(i,j)/dx required   4.1 seconds.
 Calculation of the contributions of <pq||rs> to dI(a,b)/dx required  16.2 seconds.
 Calculation of the contributions of <pq||rs> to dI(i,a)/dx required  10.4 seconds.
 First-order Z-vector equations are solved for 1 perturbation.
 Convergence reached after  17 iterations.
        U*G(pq,rs) contribution is being calculated
             (Symmetry block 3, perturbation   2)

 CCSD contribution to force constants 

        0.0000000000        0.0000000000        0.0000000000
        0.0000000000        0.0000000000        0.0000000000
        0.0000000000        0.0000000000        0.0000000000
        0.0000000000        0.0000000000        0.0000000000
        0.0000000000        0.0000000000        0.0000000000
        0.0000000000        0.0000000000        0.0000000000
        0.0000000000        0.0000000000        0.0000000000
        0.0000000000        0.0000000000        0.0000000000
        0.0000000000        0.0000000000        0.0000000000
        0.0000000000        0.0000000000        0.0000000000
        0.0000000000        0.0000000000        0.0000000000
        0.0000000000      -16.8867520720       16.8867520720

 CCSD contribution to dipole derivatives 

        0.0000000000        0.0000000000        0.0000000000
        0.0000000000        0.0000000000        0.0000000000
        0.0000000000        0.0000000000        0.0000000000
        0.0000000000        0.0000000000       -0.0362360699
        0.0000000000        0.0000000000        0.0000000000
        0.0000000000        0.0000000000        0.0000000000
 @CHECKOUT-I, Total execution time (CPU/WALL):     1181.67/     486.65 seconds.
--executable xsdcc finished with status     0 in      486.84 seconds (walltime).
 --invoking executable--
/nfs/workspaces/public/cfour_mpi/bin/xanti
 @GETMEM-I,  Allocated    3814 MB of main memory.
 CCSD MO derivative gammas will be sorted to Mulliken order.
 @CHECKOUT-I, Total execution time (CPU/WALL):       18.59/      46.34 seconds.
--executable xanti finished with status     0 in       46.49 seconds (walltime).
 --invoking executable--
/nfs/workspaces/public/cfour_mpi/bin/xbcktrn
 @GETMEM-I,  Allocated    3814 MB of main memory.
 CCSD MO derivative gammas will be transformed to the AO basis.
 @CHECKOUT-I, Total execution time (CPU/WALL):       30.43/       5.81 seconds.
--executable xbcktrn finished with status     0 in        5.87 seconds (walltime).
 --invoking executable--
/nfs/workspaces/public/cfour_mpi/bin/xvdint
 @GETMEM-I,  Allocated    3814 MB of main memory.
 One- and two-electron integral derivatives are calculated
 for RHF-CC/MBPT hessians and dipole derivatives.
 Spherical gaussians are used.
  magnet F F
                    8722  records have been written to the Sort file.
  Total length of Sort file :             178609116  words.
 Evaluation of 2el integral derivatives

                      Two-electron integral gradient
                      ------------------------------

                         C #1 z     0.0000000000
                         O #2 z     0.0000000000


 C #1       0.0000000000           -2.1098991971            0.0000000000
 O #2       0.0000000000            2.1098991971            0.0000000000


 Evaluation of 2e integral derivatives required  359.09 seconds.
  contribution to Hessian
        0.0000000000        0.0000000000        0.0000000000
        0.0000000000       -2.1098991971        2.1098991971
 @CHECKOUT-I, Total execution time (CPU/WALL):      359.08/      73.69 seconds.
--executable xvdint finished with status     0 in       73.87 seconds (walltime).
 --invoking executable--
/nfs/workspaces/public/cfour_mpi/bin/xanti
 @GETMEM-I,  Allocated    3814 MB of main memory.
 CCSD MO gammas will be sorted to Mulliken order.
 @CHECKOUT-I, Total execution time (CPU/WALL):       17.91/      53.32 seconds.
--executable xanti finished with status     0 in       54.07 seconds (walltime).
 --invoking executable--
/nfs/workspaces/public/cfour_mpi/bin/xbcktrn
 @GETMEM-I,  Allocated    3814 MB of main memory.
 CCSD MO gammas will be transformed to the AO basis.
 @CHECKOUT-I, Total execution time (CPU/WALL):       43.92/      17.10 seconds.
--executable xbcktrn finished with status     0 in       17.17 seconds (walltime).
 --invoking executable--
/nfs/workspaces/public/cfour_mpi/bin/xvdint
 @GETMEM-I,  Allocated    3814 MB of main memory.
 One- and two-electron integral derivatives are calculated
 for RHF-CC/MBPT hessians and dipole derivatives.
 Spherical gaussians are used.
  magnet F F

                     Kinetic energy integral gradient
                     --------------------------------

                         C #1 z    -2.0223119519
                         O #2 z     2.0223119519


 C #1       0.0000000000            0.0000000000           -2.0223119519
 O #2       0.0000000000            0.0000000000            2.0223119519



                   Nuclear attraction integral gradient
                   ------------------------------------

                         C #1 z    28.4632176872
                         O #2 z   -28.4632176872


 C #1       0.0000000000            0.0000000000           28.4632176872
 O #2       0.0000000000            0.0000000000          -28.4632176872



                      Reorthonormalization gradient
                      -----------------------------

                         C #1 z     0.0000000000
                         O #2 z     0.0000000000


 C #1       0.0000000000            0.0000000000            0.0000000000
 O #2       0.0000000000            0.0000000000            0.0000000000



                     Kinetic energy integral Hessian
                     -------------------------------


           Symmetry 1

           C #1 z      O #2 z

 C #1 z    0.232518
 O #2 z   -0.232518    0.232518


           Symmetry 2

           C #1 x      O #2 x

 C #1 x   -4.016118
 O #2 x    4.016118   -4.016118


           Symmetry 3

           C #1 y      O #2 y

 C #1 y   -4.016118
 O #2 y    4.016118   -4.016118




           C #1 x      C #1 y      C #1 z      O #2 x      O #2 y      O #2 z

 C #1 x   -4.016118
 C #1 y    0.000000   -4.016118
 C #1 z    0.000000    0.000000    0.232518

 O #2 x    4.016118    0.000000    0.000000   -4.016118
 O #2 y    0.000000    4.016118    0.000000    0.000000   -4.016118
 O #2 z    0.000000    0.000000   -0.232518    0.000000    0.000000    0.232518




                   Nuclear attraction integral Hessian
                   -----------------------------------


           Symmetry 1

           C #1 z      O #2 z

 C #1 z  -11.756208
 O #2 z   11.756208  -11.756208


           Symmetry 2

           C #1 x      O #2 x

 C #1 x   34.762220
 O #2 x  -34.762220   34.762220


           Symmetry 3

           C #1 y      O #2 y

 C #1 y   34.762220
 O #2 y  -34.762220   34.762220




           C #1 x      C #1 y      C #1 z      O #2 x      O #2 y      O #2 z

 C #1 x   34.762220
 C #1 y    0.000000   34.762220
 C #1 z    0.000000    0.000000  -11.756208

 O #2 x  -34.762220    0.000000    0.000000   34.762220
 O #2 y    0.000000  -34.762220    0.000000    0.000000   34.762220
 O #2 z    0.000000    0.000000   11.756208    0.000000    0.000000  -11.756208




                Highest order reorthonormalization Hessian
                ------------------------------------------


           Symmetry 1

           C #1 z      O #2 z

 C #1 z    0.000000
 O #2 z    0.000000    0.000000


           Symmetry 2

           C #1 x      O #2 x

 C #1 x    0.000000
 O #2 x    0.000000    0.000000


           Symmetry 3

           C #1 y      O #2 y

 C #1 y    0.000000
 O #2 y    0.000000    0.000000




           C #1 x      C #1 y      C #1 z      O #2 x      O #2 y      O #2 z




                Electronic contributions to dipole moment
                -----------------------------------------

                               au             Debye

                    z     -1.00099046     -2.54426441

  Conversion factor used: 1 a.u. =   2.54174691 Debye 



   Electronic contributions to static part of dipole moment derivatives
   --------------------------------------------------------------------


                     Total dipole moment derivatives
                     -------------------------------


           Symmetry 1
                              Ez

               C #1 z    -5.85588525
               O #2 z    -8.14411475

           Symmetry 2
                              Ex

               C #1 x    -5.91113971
               O #2 x    -8.08886029

           Symmetry 3
                              Ey

               C #1 y    -5.91113971
               O #2 y    -8.08886029



                       Ex          Ey          Ez

      C #1    x   -5.911140    0.000000    0.000000
      C #1    y    0.000000   -5.911140    0.000000
      C #1    z    0.000000    0.000000   -5.855885

      O #2    x   -8.088860    0.000000    0.000000
      O #2    y    0.000000   -8.088860    0.000000
      O #2    z    0.000000    0.000000   -8.144115

 Evaluation of 1e integral derivatives required    1.64 seconds.
                    8815  records have been written to the Sort file.
  Total length of Sort file :             180513570  words.
 Evaluation of 2el integral derivatives

                      Two-electron integral gradient
                      ------------------------------

                         C #1 z   -11.7133561970
                         O #2 z    11.7133561970


 C #1       0.0000000000            0.0000000000          -11.7133561970
 O #2       0.0000000000            0.0000000000           11.7133561970


 Evaluation of 2e integral derivatives required  740.09 seconds.

                            Molecular gradient
                            ------------------

                         C #1 z    -0.7788792394
                         O #2 z     0.7788792394


 C #1       0.0000000000            0.0000000000           -0.7788792394
 O #2       0.0000000000            0.0000000000            0.7788792394


  Molecular gradient norm 0.110E+01

                            Molecular hessian
                            -----------------


           Symmetry 1

           C #1 z      O #2 z

 C #1 z  111.658537
 O #2 z -111.658537  111.658537


           Symmetry 2

           C #1 x      O #2 x

 C #1 x   17.629713
 O #2 x  -17.629713   17.629713


           Symmetry 3

           C #1 y      O #2 y

 C #1 y   17.629713
 O #2 y  -17.629713   17.629713




           C #1 x      C #1 y      C #1 z      O #2 x      O #2 y      O #2 z

 C #1 x   17.629713
 C #1 y    0.000000   17.629713
 C #1 z    0.000000    0.000000  111.658537

 O #2 x  -17.629713    0.000000    0.000000   17.629713
 O #2 y    0.000000  -17.629713    0.000000    0.000000   17.629713
 O #2 z    0.000000    0.000000 -111.658537    0.000000    0.000000  111.658537




                           Total dipole moment
                           -------------------

                               au             Debye

                    z     -0.29750602     -0.75618501

  Conversion factor used: 1 a.u. =   2.54174691 Debye 



                     Total dipole moment derivatives
                     -------------------------------


           Symmetry 1
                              Ez

               C #1 z     0.63150886
               O #2 z    -0.63150886

           Symmetry 2
                              Ex

               C #1 x    -0.17003979
               O #2 x     0.17003979

           Symmetry 3
                              Ey

               C #1 y    -0.17003979
               O #2 y     0.17003979



                       Ex          Ey          Ez

      C #1    x   -0.170040    0.000000    0.000000
      C #1    y    0.000000   -0.170040    0.000000
      C #1    z    0.000000    0.000000    0.631509

      O #2    x    0.170040    0.000000    0.000000
      O #2    y    0.000000    0.170040    0.000000
      O #2    z    0.000000    0.000000   -0.631509

 @CHECKOUT-I, Total execution time (CPU/WALL):      741.72/     125.68 seconds.
--executable xvdint finished with status     0 in      125.88 seconds (walltime).
 --invoking executable--
/nfs/workspaces/public/cfour_mpi/bin/xjoda
  @GTFLGS-I, Hessian will be transformed to curvilinear coordinates.
  @GTFLGS-I, Hessian will be transformed to curvilinear coordinates.
  igrd and ihes are                      0                     1
  gradient from JOBARC 
   0.000000000000000   0.000000000000000  -0.778879239443209
   0.000000000000000   0.000000000000000   0.778879239443209
 
  @PROJFCM-I, Projecting force constant matrix onto totally symmetric subspace.
  Largest difference between matrix elements of symmetrized
  and unsymmetrized FCM :     0.5777778256E-10.
  read isotopes from ZMAT file 
 
  Summary of diagonal Born-Oppenheimer correction at the correlated level
  The total diagonal Born-Oppenheimer correction (DBOC) is:      0.0038942158 a.u.
  The total diagonal Born-Oppenheimer correction (DBOC) is:        854.681575 cm-1
  The total diagonal Born-Oppenheimer correction (DBOC) is:            10.224 kJ/mole
  hellooooooo 
  readis is  F
 
 @CHECKOUT-I, Total execution time (CPU/WALL):        0.01/       0.06 seconds.
--executable xjoda finished with status     0 in        0.11 seconds (walltime).
  The final electronic energy is      -113.145705499340195 a.u. 
  This computation required                         4403.73 seconds (walltime).
