 --invoking executable--
/nfs/workspaces/public/cfour_mpi/bin/xjoda


   *************************************************************************
         <<<     CCCCCC     CCCCCC   |||     CCCCCC     CCCCCC   >>>
       <<<      CCC        CCC       |||    CCC        CCC         >>>
      <<<      CCC        CCC        |||   CCC        CCC            >>>
    <<<        CCC        CCC        |||   CCC        CCC              >>>
      <<<      CCC        CCC        |||   CCC        CCC            >>>
       <<<      CCC        CCC       |||    CCC        CCC         >>>
         <<<     CCCCCC     CCCCCC   |||     CCCCCC     CCCCCC   >>>
   *************************************************************************

     ****************************************************************
     * CFOUR Coupled-Cluster techniques for Computational Chemistry *
     ****************************************************************
 

   Department of Chemistry                Institut fuer Physikalische Chemie
   University of Florida                  Universitaet Mainz
   Gainesville, FL 32611, USA             D-55099 Mainz, Germany

   Department of Chemistry                Fakultaet fuer Chemie und Biowiss.
   Johns Hopkins University               Karlsruher Institut fuer Technologie
   Baltimore, MD 21218, USA               D-76131 Karlsruhe, Germany

   Department of Chemistry                Department of Physical Chemistry
   Southern Methodist University          Eotvos Lorand University
   Dallas, TX 75275, USA                  H-1053 Budapest, Hungary

 
                       Version 2.1
 
                     vincent.theory.phys.ucl.ac.uk                     
                     Mon  3 Mar 23:59:56 GMT 2025                      
                     integer*8 version is running
 
********************************************************************************
*                          Input from ZMAT file                                *
********************************************************************************
Carbon Monoxide DBOC calculation                                                
C                                                                               
O 1 r                                                                           
                                                                                
r=1.7689655172413794                                                            
                                                                                
                                                                                
*CFOUR(CALC=CCSD,BASIS=AUG-PCVQZ,SCF_CONV=10                                    
CC_CONV=14,DBOC=ON,MEMORY=500000000                                             
ZFIELD=-200)                                                                    
                                                                                
%isotopes                                                                       
12                                                                              
18                                                                              
********************************************************************************
  @GTFLGS-I, Hessian will be transformed to curvilinear coordinates.
    -------------------------------------------------------------------
                    CFOUR Control Parameters 
    -------------------------------------------------------------------
        External           Internal           Value            Units
          Name               Name
    -------------------------------------------------------------------
       ABCDTYPE             IABCDT         STANDARD    [  0]    ***   
       ANHARMONIC           IANHAR         OFF         [  0]    ***   
       ANH_ALGORIT          IANALG         STANDARD    [  0]    ***   
       ANH_DERIVAT          IANDER         SECOND      [  1]    ***   
       ANH_MODE             ANHMOD         VIBRATION   [  0]    ***   
       ANH_STEPSIZ          ICUBST             50000          x 10-6  
       ANH_SYMMETR          IANHSM         ABELIAN     [  0]    ***   
       AO_LADDERS           IAOLAD         SINGLEPASS  [  1]    ***   
       AV_SCF               IAVSCF         OFF         [  0]    ***   
       BASIS                IBASIS         AUG-PCVQZ   [ 52]    ***   
       BOTHVECTORS          BOTHVC         OFF         [  0]    ***   
       BOX_POTENT           IPIAB          OFF         [  0]    ***   
       BREIT                IBREIT         OFF         [  0]    ***   
       BRUCK_CONV           IBRTOL          10D-  4             ***   
       BRUECKNER            IBRKNR         OFF         [  0]    ***   
       BUFFERSIZE           IBUFFS              4096            ***   
       CACHE_RECS           ICHREC             10               ***   
       CALCLEVEL            ICLLVL         CCSD        [ 10]    ***   
       CCORBOPT             ICCORB         OFF         [  0]  x 0.01  
       CC_CONV              ICCCNV          10D- 14             ***   
       CC_EXPORDER          ICCEOR              5               ***   
       CC_EXTRAPOL          ICCEXT         DIIS        [  1]    ***   
       CC_GUESS             ICCGES         MP2         [  0]    ***   
       CC_MAXCYC            ICCCYC            100              cycles 
       CC_PROGRAM           ICCPRO         VCC         [  0]    ***   
       CHARGE               ICHRGE              0               ***   
       CHOLESKY             ICHOLE         OFF         [  0]    ***   
       CIS_CONV             ICISTL              5               ***   
       COMM_SIZE            IPSIZE            ***               ***   
       CONSTANT             ICONST         OLD         [  1]    ***   
       CONTINUUM            ICONTU         NONE        [  0]    ***   
       CONTRACTION          ICNTYP         GENERAL     [  1]    ***   
       COORDINATES          ICOORD         INTERNAL    [  0]    ***   
       CPHF_CONVER          ICPHFT          10D- 16             ***   
       CPHF_MAXCYC          ICPHFC             64              cycles 
       CUBIC                ICUBIC         OFF         [  0]    ***   
       CURVILINEAR          ICURVY         ON          [  1]    ***   
       DBOC                 IDBOC          ON          [  1]    ***   
       DCT                  IDCT           OFF         [  0]    ***   
       DERIV_LEV            IDRLVL         SECOND      [  2]    ***   
       DEVMEM_SIZE          IDVMEM          50000000           MByte  
       DIAG_MRCC            IEOMST          10D-  0             ***   
       DIFF_TYPE            IDIFTY         RELAXED     [  0]    ***   
       DIRECT               IDIRCT         OFF         [  0]    ***   
       DROPMO               IDRPMO      NONE         
       ECP                  IECP           OFF         [  0]    ***   
       EIGENVECTOR          IVEC                1               ***   
       EL_ANHARM            IELANH         OFF         [  0]    ***   
       EOMFOLLOW            IEOMSR         ENERGY      [  0]    ***   
       EOMIP                IEOMIP         OFF         [  0]    ***   
       EOMLEVEL             HBARFM         SAME        [  0]    ***   
       EOM_MRCC             IMRCCE         NEW         [  1]    ***   
       EOM_NONIT            EOMNON         OFF         [  0]    ***   
       EOM_NSING            IEOMSI          10D-  0             ***   
       EOM_NSTATES          IMRCCD         DAVIDSON    [  0]    ***   
       EOM_NTRIP            IEOMTR          10D-  0             ***   
       EOM_ORDER            IEXORD         ENERGY      [  0]    ***   
       EOM_PROPSTA          IEOMST              0               ***   
       ESTATE_CONV          IEXTOL          10D-  5             ***   
       ESTATE_DIAG          IEXDIG         ITERATIVE   [  0]    ***   
       ESTATE_LOCK          IESLOC         ON          [  1]    ***   
       ESTATE_MAXC          IEXMXC             40               ***   
       ESTATE_PROP          IEXPRP         OFF         [  0]    ***   
       EVAL_HESS            IRECAL              0            # of cyc.
       EXCITATION           IEXCIT              0               ***   
       EXCITE               IEXCIT         NONE        [  0]    ***   
       EXTERN_POT           IEXPOT         OFF         [  0]    ***   
       FCGRADNEW            IFCGNW         OFF         [  0]    ***   
       FC_FIELD             IFINFC              0             x 10-6  
       FD_CALTYPE           IFDCAL         GRADONLY    [  0]    ***   
       FD_PROJECT           IFDPRJ         OFF         [  1]    ***   
       FD_STEPSIZE          IDISFD              0            10-4 bohr
       FD_USEGROUP          IFDGRP         FULL        [  0]    ***   
       FILE_RECSIZ          IFLREC              4096           words  
       FINITE_PERT          IFIPER              0             x 10-6  
       FIXGEOM              IFIXGM         OFF         [  0]    ***   
       FOCK                 IFOCK          AO          [  1]    ***   
       FREQ_ALGORI          IVIALG         STANDARD    [  0]    ***   
       FROZEN_CORE          IFROCO         OFF         [  0]    ***   
       GAMMA_ABCD           IGABCD         STORE       [  0]    ***   
       GAMMA_ABCI           IGABCI         STORE       [  0]    ***   
       GENBAS_1             IGNBS1              0               ***   
       GENBAS_2             IGNBS2              0               ***   
       GENBAS_3             IGNBS3              0               ***   
       GENBAS_4             IGNBS4              0               ***   
       GEO_CONV             ICONTL              5              H/bohr 
       GEO_MAXCYC           IOPTCY             50               ***   
       GEO_MAXSTEP          IMXSTP            300            millibohr
       GEO_METHOD           INR            SINGLE_POINT[  5]    ***   
       GIAO                 IGIAO          OFF         [  1]    ***   
       GIMIC                IGIMIC         OFF         [  0]    ***   
       GRID                 IGRID          OFF         [  0]    ***   
       GRID_ALGO            IGALGO         SERIAL      [  0]    ***   
       GUESS                IGUESS         MOREAD      [  0]    ***   
       HBAR                 IHBAR          OFF         [  0]    ***   
       HESS_TYPE            IHESTP         SCF         [  0]    ***   
       HF2_FILE             IHF2Fl         USE         [  1]    ***   
       HFSTABILITY          ISTABL         OFF         [  0]    ***   
       INCORE               INCORE         OFF         [  0]    ***   
       INPUT_MRCC           IMRCC          ON          [  1]    ***   
       INTEGRALS            INTTYP         VMOL        [  1]    ***   
       JODA_PRINT           IJPRNT              0               ***   
       KEYWORD_OUT          IDMPKW         NO          [  0]    ***   
       LINDEP_TOL           ILINDP              8               ***   
       LINEQ_CONV           IZTACN          10D-  7           cycles  
       LINEQ_EXPOR          ILMAXD              5               ***   
       LINEQ_MAXCY          ILMAXC            100               ***   
       LINEQ_TYPE           ILTYPE         DIIS        [  1]    ***   
       LOCK_ORBOCC          ILOCOC         OFF         [  0]    ***   
       MEMORY_SIZE          IMEMSZ         500000000           words  
       MEM_UNIT             IMEMU          INTEGERWORDS[  0]    ***   
       MRCC                 IMRCCC         OFF         [  0]    ***   
       MULTIPLICTY          IMULTP              1               ***   
       NACOUPLING           IVCOUP         OFF         [  0]    ***   
       NEGEVAL              IDIE           ABORT       [  0]    ***   
       NEWNORM              INEWNO         OFF         [  0]    ***   
       NON-HF               INONHF         OFF         [  0]    ***   
       NTOP_TAMP            ITOPT2             15               ***   
       NUC_MODEL            INUCMO         POINT       [  0]    ***   
       OCCUPATION           IOCCU   ESTIMATED BY SCF 
       OPEN-SHELL           IOPEN          SPIN-ORBITAL[  0]    ***   
       OPTVIB               IOPTVB         OFF         [  0]    ***   
       ORBITALS             IORBTP         STANDARD    [  0]    ***   
       PARALLEL             IPARAL         ON          [  1]    ***   
       PARA_INT             IPINTS         ON          [  1]    ***   
       PARA_PRINT           IPPRIN              0               ***   
       PERT_ORB             IPTORB         STANDARD    [  0]    ***   
       POINTS               IGRDFD              0               ***   
       PRINT                IPRNT               0               ***   
       PROPS                IPROPS         OFF         [  0]    ***   
       PROP_INTEGR          IINTYP         INTERNAL    [  0]    ***   
       PSI                  IPSI           OFF         [  0]    ***   
       QC_ALG               IQCALG         FLM         [  0]    ***   
       QC_LINALG            IQCLIN         TRIDIAG     [  2]    ***   
       QC_MAXCYC            IQCMAX          10D-100           cycles  
       QC_MAXSCFCY          IQCMSC          10D- 15           cycles  
       QC_RTRUST            IQCRTR          10D-  0           x 10-3  
       QC_SKIPSCF           IQCSKI         OFF         [  0]    ***   
       QC_START             IQCSTA          10D-  1             ***   
       QRHFGUESS            IQGUES         OFF         [  0]    ***   
       QUARTIC              IQUART         OFF         [  0]    ***   
       RAMAN_INT            IRAMIN         OFF         [  0]    ***   
       RAMAN_ORB            IRAMRE         UNRELAXED   [  0]    ***   
       RDO                  IRDOFM         ON          [  1]    ***   
       REDUCE_REPR          REDREP         Ir          [  0]    ***   
       REFERENCE            IREFNC         RHF         [  0]    ***   
       RELATIVIST           IRELAT         OFF         [  0]    ***   
       RELAX_DENS           IRDENS         ON          [  1]    ***   
       RESET_FLAGS          IRESET         OFF         [  0]    ***   
       RESTART_CC           ICCRES         OFF         [  0]    ***   
       ROT_EVEC             ROTVEC              0               ***   
       SAVE_INTS            ISVINT         OFF         [  0]    ***   
       SCALE_ON             ISTCRT              0               ***   
       SCF_CONV             ISCFCV          10D- 10             ***   
       SCF_DAMPING          IDAMP               0             x 10-3  
       SCF_EXPORDE          IRPPOR              6               ***   
       SCF_EXPSTAR          IRPPLS              8               ***   
       SCF_EXTRAPO          IRPP           ON          [  1]    ***   
       SCF_MAXCYC           ISCFCY            150              cycles 
       SCF_NOSTOP           ISCFST         OFF         [  0]    ***   
       SCF_PRINT            ISCFPR              0               ***   
       SCF_PROG             ISCFPR         SCF         [  0]    ***   
       SD_FIELD             IFINSD              0             x 10-6  
       SOPERT               IPERSO         OFF         [  0]    ***   
       SPHERICAL            IDFGHI         ON          [  1]    ***   
       SPINORBIT            ISOCAL         OFF         [  0]    ***   
       SPINROTATIO          ISRCON         OFF         [  0]    ***   
       SPIN_FLIP            ISPFLP         OFF         [  0]    ***   
       SPIN_ORBIT           ISPORB         OFF         [  0]    ***   
       SPIN_SCAL            ISCSMP         OFF         [  0]    ***   
       STEEPSCALE           ISTPSC              1000          x 10-3  
       SUBGROUP             ISUBGP         DEFAULT     [  0]    ***   
       SUBGRPAXIS           ISBXYZ         X           [  0]    ***   
       SYMMETRY             ISYM           ON          [  0]    ***   
       SYM_CHECK            ISYMCK         OVERRIDE    [  1]    ***   
       T3_EXTRAPOL          IT3EXT         OFF         [  0]    ***   
       T4_EXTRAPOL          IT4EXP         OFF         [  0]    ***   
       TAMP_SUM             IEVERY              5               ***   
       TESTSUITE            ITESTS         OFF         [  0]    ***   
       THERMOCH             ITHERM         OFF         [  0]    ***   
       TOL_CHOLESK          ITOLCH          10D-  4             ***   
       TRANGRAD             IRESRM         OFF         [  0]    ***   
       TRANS_INV            ITRAIN         IGNORE      [  1]    ***   
       TREAT_PERT           ITREAT         SIMULTANEOUS[  0]    ***   
       TRIP_ALGORI          ITRALG         NORMAL      [  0]    ***   
       UIJ_THRESHO          IUIJTH              1               ***   
       UNITS                IUNITS         ANGSTROM    [  0]    ***   
       UNOS                 IUNOS          OFF         [  0]    ***   
       UPDATE_HESS          IHUPDT         ON          [  1]    ***   
       VIBPHASE             ISETPH         STANDARD    [  0]    ***   
       VIBRATION            IVIB           ANALYTIC    [  1]    ***   
       VIB_ALGORIT          IGEALG         STANDARD    [  0]    ***   
       VNATORB              IVNORB         OFF         [  0]    ***   
       VTRAN                IVTRAN         FULL/PARTIAL[  0]    ***   
       XFIELD               IXEFLD              0             x 10-6  
       XFORM_TOL            IXFTOL          10D- 11             ***   
       YFIELD               IYEFLD              0             x 10-6  
       ZFIELD               IZEFLD            ***             x 10-6  
       ZSCALE_EXP           IZEXPS         OFF         [  0]    ***   
    -------------------------------------------------------------------
   2 entries found in Z-matrix 
   Job Title : Carbon Monoxide DBOC calculation                                                
   There are  1 unique internal coordinates.
   Of these,  0 will be optimized.
   User supplied Z-matrix: 
--------------------------------------------------------------------------------
       SYMBOL    BOND      LENGTH    ANGLE     ANGLE     DIHED     ANGLE
                  TO      (ANGST)    WRT      (DEG)      WRT      (DEG)
--------------------------------------------------------------------------------
        C    
        O          1         r    
                  *Initial values for internal coordinates* 
                      Name             Value
                        r               1.7689655172
--------------------------------------------------------------------------------
  read isotopes from ZMAT file 
   Rotational constants (in cm-1): 
          0.7482270909             0.7482270909
   Rotational constants (in MHz): 
      22431.2870142931         22431.2870142931
********************************************************************************
   The full molecular point group is CXv .
   The largest Abelian subgroup of the full molecular point group is C2v .
   The computational point group is C2v .
********************************************************************************
--------------------------------------------------------------------------------
   Analysis of internal coordinates specified by Z-matrix 
--------------------------------------------------------------------------------
   *The nuclear repulsion energy is   14.358957567251460 a.u.
   *There is   1 degree of freedom within the tot. symm. molecular subspace.
   *Z-matrix requests optimization of   0 coordinates.
   *The optimization is constrained.
   *The following   1 parameters can have non-zero 
    derivatives within the totally symmetric subspace:
             r    [ 1]
   *The following   0 parameters are to be optimized:

   *The following coordinates must be varied in an  unconstrained optimization.
             r    [ 1]
--------------------------------------------------------------------------------


 ----------------------------------------------------------------
         Coordinates used in calculation (QCOMP) 
 ----------------------------------------------------------------
 Z-matrix   Atomic            Coordinates (in bohr)
  Symbol    Number           X              Y              Z
 ----------------------------------------------------------------
     C         6        -0.00000000     0.00000000     2.00567920
     O         8         0.00000000     0.00000000    -1.33718185
 ----------------------------------------------------------------
 
   Interatomic distance matrix (Angstroms) 
 
                 C             O    
                [ 1]        [ 2]
  C    [ 1]     0.00000
  O    [ 2]     1.76897     0.00000
 rotcon2
   Rotational constants (in cm-1): 
          0.7482270909             0.0000000000
   Rotational constants (in MHz): 
      22431.2870142931             0.0000000000
  ECPDATA file not present.   Using default ECPDATA. 
  @GTFLGS-I, Hessian will be transformed to curvilinear coordinates.
  There are  218 basis functions.
 @CHECKOUT-I, Total execution time (CPU/WALL):        0.17/       0.26 seconds.
--executable xjoda finished with status     0 in        0.30 seconds (walltime).
 --invoking executable--
/nfs/workspaces/public/cfour_mpi/bin/xvmol
 SERIAL VERSION OF MOLECULE STARTED
********************************************************************************
                    INPUT FROM MOL FILE
********************************************************************************
INTGRL        1    0    1    0    0    0    0    0    0                         
         *** CFOUR Program System (Release V0.1) ***                            
Carbon Monoxide DBOC calculation                                                
    2    2 X  Y       0.10E-08              0    0                              
   9999.00      3.00                                                            
          6.00000000    1    5    1    1    1    1    1                         
C #1  -0.000000000000000   0.000000000000000   2.005679203526626                
   16    9                                                                      
   33980.0000000000       9.100000000000000E-005 -1.900000000000000E-005        
  0.000000000000000E+000  0.000000000000000E+000  0.000000000000000E+000        
  0.000000000000000E+000  0.000000000000000E+000  0.000000000000000E+000        
  0.000000000000000E+000                                                        
   5089.00000000000       7.040000000000000E-004 -1.510000000000000E-004        
  0.000000000000000E+000  0.000000000000000E+000  0.000000000000000E+000        
  0.000000000000000E+000  0.000000000000000E+000  0.000000000000000E+000        
  0.000000000000000E+000                                                        
   1157.00000000000       3.693000000000000E-003 -7.850000000000000E-004        
  0.000000000000000E+000  0.000000000000000E+000  0.000000000000000E+000        
  0.000000000000000E+000  0.000000000000000E+000  0.000000000000000E+000        
  0.000000000000000E+000                                                        
   326.600000000000       1.536000000000000E-002 -3.324000000000000E-003        
  0.000000000000000E+000  0.000000000000000E+000  0.000000000000000E+000        
  0.000000000000000E+000  0.000000000000000E+000  0.000000000000000E+000        
  0.000000000000000E+000                                                        
   106.100000000000       5.292900000000000E-002 -1.151200000000000E-002        
  0.000000000000000E+000  0.000000000000000E+000  0.000000000000000E+000        
  0.000000000000000E+000  0.000000000000000E+000  0.000000000000000E+000        
  0.000000000000000E+000                                                        
   38.1100000000000       0.147043000000000      -3.416000000000000E-002        
  0.000000000000000E+000  0.000000000000000E+000  0.000000000000000E+000        
  0.000000000000000E+000  0.000000000000000E+000  0.000000000000000E+000        
  0.000000000000000E+000                                                        
   14.7500000000000       0.305631000000000      -7.717300000000001E-002        
  0.000000000000000E+000  0.000000000000000E+000  0.000000000000000E+000        
  0.000000000000000E+000  0.000000000000000E+000  0.000000000000000E+000        
  0.000000000000000E+000                                                        
   6.03500000000000       0.399345000000000      -0.141493000000000             
  0.000000000000000E+000  0.000000000000000E+000  0.000000000000000E+000        
  0.000000000000000E+000  0.000000000000000E+000  0.000000000000000E+000        
  0.000000000000000E+000                                                        
   2.53000000000000       0.217051000000000      -0.118019000000000             
  0.000000000000000E+000  0.000000000000000E+000  0.000000000000000E+000        
  0.000000000000000E+000  0.000000000000000E+000  0.000000000000000E+000        
  0.000000000000000E+000                                                        
  0.735500000000000       1.589400000000000E-002  0.273806000000000             
   1.00000000000000       0.000000000000000E+000  0.000000000000000E+000        
  0.000000000000000E+000  0.000000000000000E+000  0.000000000000000E+000        
  0.000000000000000E+000                                                        
  0.290500000000000      -3.084000000000000E-003  0.586510000000000             
  0.000000000000000E+000   1.00000000000000       0.000000000000000E+000        
  0.000000000000000E+000  0.000000000000000E+000  0.000000000000000E+000        
  0.000000000000000E+000                                                        
  0.111100000000000       9.779999999999999E-004  0.285430000000000             
  0.000000000000000E+000  0.000000000000000E+000   1.00000000000000             
  0.000000000000000E+000  0.000000000000000E+000  0.000000000000000E+000        
  0.000000000000000E+000                                                        
   7.21600000000000       0.000000000000000E+000  0.000000000000000E+000        
  0.000000000000000E+000  0.000000000000000E+000  0.000000000000000E+000        
   1.00000000000000       0.000000000000000E+000  0.000000000000000E+000        
  0.000000000000000E+000                                                        
   19.5700000000000       0.000000000000000E+000  0.000000000000000E+000        
  0.000000000000000E+000  0.000000000000000E+000  0.000000000000000E+000        
  0.000000000000000E+000   1.00000000000000       0.000000000000000E+000        
  0.000000000000000E+000                                                        
   53.0730000000000       0.000000000000000E+000  0.000000000000000E+000        
  0.000000000000000E+000  0.000000000000000E+000  0.000000000000000E+000        
  0.000000000000000E+000  0.000000000000000E+000   1.00000000000000             
  0.000000000000000E+000                                                        
  4.145000000000000E-002  0.000000000000000E+000  0.000000000000000E+000        
  0.000000000000000E+000  0.000000000000000E+000  0.000000000000000E+000        
  0.000000000000000E+000  0.000000000000000E+000  0.000000000000000E+000        
   1.00000000000000                                                             
   10    8                                                                      
   34.5100000000000       5.378000000000000E-003  0.000000000000000E+000        
  0.000000000000000E+000  0.000000000000000E+000  0.000000000000000E+000        
  0.000000000000000E+000  0.000000000000000E+000  0.000000000000000E+000        
   7.91500000000000       3.613200000000000E-002  0.000000000000000E+000        
  0.000000000000000E+000  0.000000000000000E+000  0.000000000000000E+000        
  0.000000000000000E+000  0.000000000000000E+000  0.000000000000000E+000        
   2.36800000000000       0.142493000000000       0.000000000000000E+000        
  0.000000000000000E+000  0.000000000000000E+000  0.000000000000000E+000        
  0.000000000000000E+000  0.000000000000000E+000  0.000000000000000E+000        
  0.813200000000000       0.342150000000000        1.00000000000000             
  0.000000000000000E+000  0.000000000000000E+000  0.000000000000000E+000        
  0.000000000000000E+000  0.000000000000000E+000  0.000000000000000E+000        
  0.289000000000000       0.463864000000000       0.000000000000000E+000        
   1.00000000000000       0.000000000000000E+000  0.000000000000000E+000        
  0.000000000000000E+000  0.000000000000000E+000  0.000000000000000E+000        
  0.100700000000000       0.250028000000000       0.000000000000000E+000        
  0.000000000000000E+000   1.00000000000000       0.000000000000000E+000        
  0.000000000000000E+000  0.000000000000000E+000  0.000000000000000E+000        
   8.18200000000000       0.000000000000000E+000  0.000000000000000E+000        
  0.000000000000000E+000  0.000000000000000E+000   1.00000000000000             
  0.000000000000000E+000  0.000000000000000E+000  0.000000000000000E+000        
   24.1860000000000       0.000000000000000E+000  0.000000000000000E+000        
  0.000000000000000E+000  0.000000000000000E+000  0.000000000000000E+000        
   1.00000000000000       0.000000000000000E+000  0.000000000000000E+000        
   71.4940000000000       0.000000000000000E+000  0.000000000000000E+000        
  0.000000000000000E+000  0.000000000000000E+000  0.000000000000000E+000        
  0.000000000000000E+000   1.00000000000000       0.000000000000000E+000        
  3.218000000000000E-002  0.000000000000000E+000  0.000000000000000E+000        
  0.000000000000000E+000  0.000000000000000E+000  0.000000000000000E+000        
  0.000000000000000E+000  0.000000000000000E+000   1.00000000000000             
    6    6                                                                      
   1.84800000000000        1.00000000000000       0.000000000000000E+000        
  0.000000000000000E+000  0.000000000000000E+000  0.000000000000000E+000        
  0.000000000000000E+000                                                        
  0.649000000000000       0.000000000000000E+000   1.00000000000000             
  0.000000000000000E+000  0.000000000000000E+000  0.000000000000000E+000        
  0.000000000000000E+000                                                        
  0.228000000000000       0.000000000000000E+000  0.000000000000000E+000        
   1.00000000000000       0.000000000000000E+000  0.000000000000000E+000        
  0.000000000000000E+000                                                        
   8.65600000000000       0.000000000000000E+000  0.000000000000000E+000        
  0.000000000000000E+000   1.00000000000000       0.000000000000000E+000        
  0.000000000000000E+000                                                        
   33.2130000000000       0.000000000000000E+000  0.000000000000000E+000        
  0.000000000000000E+000  0.000000000000000E+000   1.00000000000000             
  0.000000000000000E+000                                                        
  7.660000000000000E-002  0.000000000000000E+000  0.000000000000000E+000        
  0.000000000000000E+000  0.000000000000000E+000  0.000000000000000E+000        
   1.00000000000000                                                             
    4    4                                                                      
   1.41900000000000        1.00000000000000       0.000000000000000E+000        
  0.000000000000000E+000  0.000000000000000E+000                                
  0.485000000000000       0.000000000000000E+000   1.00000000000000             
  0.000000000000000E+000  0.000000000000000E+000                                
   24.6940000000000       0.000000000000000E+000  0.000000000000000E+000        
   1.00000000000000       0.000000000000000E+000                                
  0.187000000000000       0.000000000000000E+000  0.000000000000000E+000        
  0.000000000000000E+000   1.00000000000000                                     
    2    2                                                                      
   1.01100000000000        1.00000000000000       0.000000000000000E+000        
  0.424000000000000       0.000000000000000E+000   1.00000000000000             
          8.00000000    1    5    1    1    1    1    1                         
O #2   0.000000000000000   0.000000000000000  -1.337181848550986                
   16    9                                                                      
   61420.0000000000       9.000000000000001E-005 -2.000000000000000E-005        
  0.000000000000000E+000  0.000000000000000E+000  0.000000000000000E+000        
  0.000000000000000E+000  0.000000000000000E+000  0.000000000000000E+000        
  0.000000000000000E+000                                                        
   9199.00000000000       6.980000000000001E-004 -1.590000000000000E-004        
  0.000000000000000E+000  0.000000000000000E+000  0.000000000000000E+000        
  0.000000000000000E+000  0.000000000000000E+000  0.000000000000000E+000        
  0.000000000000000E+000                                                        
   2091.00000000000       3.664000000000000E-003 -8.290000000000000E-004        
  0.000000000000000E+000  0.000000000000000E+000  0.000000000000000E+000        
  0.000000000000000E+000  0.000000000000000E+000  0.000000000000000E+000        
  0.000000000000000E+000                                                        
   590.900000000000       1.521800000000000E-002 -3.508000000000000E-003        
  0.000000000000000E+000  0.000000000000000E+000  0.000000000000000E+000        
  0.000000000000000E+000  0.000000000000000E+000  0.000000000000000E+000        
  0.000000000000000E+000                                                        
   192.300000000000       5.242300000000000E-002 -1.215600000000000E-002        
  0.000000000000000E+000  0.000000000000000E+000  0.000000000000000E+000        
  0.000000000000000E+000  0.000000000000000E+000  0.000000000000000E+000        
  0.000000000000000E+000                                                        
   69.3200000000000       0.145921000000000      -3.626100000000000E-002        
  0.000000000000000E+000  0.000000000000000E+000  0.000000000000000E+000        
  0.000000000000000E+000  0.000000000000000E+000  0.000000000000000E+000        
  0.000000000000000E+000                                                        
   26.9700000000000       0.305258000000000      -8.299200000000000E-002        
  0.000000000000000E+000  0.000000000000000E+000  0.000000000000000E+000        
  0.000000000000000E+000  0.000000000000000E+000  0.000000000000000E+000        
  0.000000000000000E+000                                                        
   11.1000000000000       0.398508000000000      -0.152090000000000             
  0.000000000000000E+000  0.000000000000000E+000  0.000000000000000E+000        
  0.000000000000000E+000  0.000000000000000E+000  0.000000000000000E+000        
  0.000000000000000E+000                                                        
   4.68200000000000       0.216980000000000      -0.115331000000000             
  0.000000000000000E+000  0.000000000000000E+000  0.000000000000000E+000        
  0.000000000000000E+000  0.000000000000000E+000  0.000000000000000E+000        
  0.000000000000000E+000                                                        
   1.42800000000000       1.759400000000000E-002  0.288979000000000             
   1.00000000000000       0.000000000000000E+000  0.000000000000000E+000        
  0.000000000000000E+000  0.000000000000000E+000  0.000000000000000E+000        
  0.000000000000000E+000                                                        
  0.554700000000000      -2.502000000000000E-003  0.586128000000000             
  0.000000000000000E+000   1.00000000000000       0.000000000000000E+000        
  0.000000000000000E+000  0.000000000000000E+000  0.000000000000000E+000        
  0.000000000000000E+000                                                        
  0.206700000000000       9.540000000000000E-004  0.277624000000000             
  0.000000000000000E+000  0.000000000000000E+000   1.00000000000000             
  0.000000000000000E+000  0.000000000000000E+000  0.000000000000000E+000        
  0.000000000000000E+000                                                        
   12.9740000000000       0.000000000000000E+000  0.000000000000000E+000        
  0.000000000000000E+000  0.000000000000000E+000  0.000000000000000E+000        
   1.00000000000000       0.000000000000000E+000  0.000000000000000E+000        
  0.000000000000000E+000                                                        
   34.9000000000000       0.000000000000000E+000  0.000000000000000E+000        
  0.000000000000000E+000  0.000000000000000E+000  0.000000000000000E+000        
  0.000000000000000E+000   1.00000000000000       0.000000000000000E+000        
  0.000000000000000E+000                                                        
   93.8810000000000       0.000000000000000E+000  0.000000000000000E+000        
  0.000000000000000E+000  0.000000000000000E+000  0.000000000000000E+000        
  0.000000000000000E+000  0.000000000000000E+000   1.00000000000000             
  0.000000000000000E+000                                                        
  6.959000000000000E-002  0.000000000000000E+000  0.000000000000000E+000        
  0.000000000000000E+000  0.000000000000000E+000  0.000000000000000E+000        
  0.000000000000000E+000  0.000000000000000E+000  0.000000000000000E+000        
   1.00000000000000                                                             
   10    8                                                                      
   63.4200000000000       6.044000000000000E-003  0.000000000000000E+000        
  0.000000000000000E+000  0.000000000000000E+000  0.000000000000000E+000        
  0.000000000000000E+000  0.000000000000000E+000  0.000000000000000E+000        
   14.6600000000000       4.179900000000000E-002  0.000000000000000E+000        
  0.000000000000000E+000  0.000000000000000E+000  0.000000000000000E+000        
  0.000000000000000E+000  0.000000000000000E+000  0.000000000000000E+000        
   4.45900000000000       0.161143000000000       0.000000000000000E+000        
  0.000000000000000E+000  0.000000000000000E+000  0.000000000000000E+000        
  0.000000000000000E+000  0.000000000000000E+000  0.000000000000000E+000        
   1.53100000000000       0.356731000000000        1.00000000000000             
  0.000000000000000E+000  0.000000000000000E+000  0.000000000000000E+000        
  0.000000000000000E+000  0.000000000000000E+000  0.000000000000000E+000        
  0.530200000000000       0.448309000000000       0.000000000000000E+000        
   1.00000000000000       0.000000000000000E+000  0.000000000000000E+000        
  0.000000000000000E+000  0.000000000000000E+000  0.000000000000000E+000        
  0.175000000000000       0.244940000000000       0.000000000000000E+000        
  0.000000000000000E+000   1.00000000000000       0.000000000000000E+000        
  0.000000000000000E+000  0.000000000000000E+000  0.000000000000000E+000        
   14.4750000000000       0.000000000000000E+000  0.000000000000000E+000        
  0.000000000000000E+000  0.000000000000000E+000   1.00000000000000             
  0.000000000000000E+000  0.000000000000000E+000  0.000000000000000E+000        
   42.7300000000000       0.000000000000000E+000  0.000000000000000E+000        
  0.000000000000000E+000  0.000000000000000E+000  0.000000000000000E+000        
   1.00000000000000       0.000000000000000E+000  0.000000000000000E+000        
   126.140000000000       0.000000000000000E+000  0.000000000000000E+000        
  0.000000000000000E+000  0.000000000000000E+000  0.000000000000000E+000        
  0.000000000000000E+000   1.00000000000000       0.000000000000000E+000        
  5.348000000000000E-002  0.000000000000000E+000  0.000000000000000E+000        
  0.000000000000000E+000  0.000000000000000E+000  0.000000000000000E+000        
  0.000000000000000E+000  0.000000000000000E+000   1.00000000000000             
    6    6                                                                      
   3.77500000000000        1.00000000000000       0.000000000000000E+000        
  0.000000000000000E+000  0.000000000000000E+000  0.000000000000000E+000        
  0.000000000000000E+000                                                        
   1.30000000000000       0.000000000000000E+000   1.00000000000000             
  0.000000000000000E+000  0.000000000000000E+000  0.000000000000000E+000        
  0.000000000000000E+000                                                        
  0.444000000000000       0.000000000000000E+000  0.000000000000000E+000        
   1.00000000000000       0.000000000000000E+000  0.000000000000000E+000        
  0.000000000000000E+000                                                        
   14.9270000000000       0.000000000000000E+000  0.000000000000000E+000        
  0.000000000000000E+000   1.00000000000000       0.000000000000000E+000        
  0.000000000000000E+000                                                        
   57.5440000000000       0.000000000000000E+000  0.000000000000000E+000        
  0.000000000000000E+000  0.000000000000000E+000   1.00000000000000             
  0.000000000000000E+000                                                        
  0.154000000000000       0.000000000000000E+000  0.000000000000000E+000        
  0.000000000000000E+000  0.000000000000000E+000  0.000000000000000E+000        
   1.00000000000000                                                             
    4    4                                                                      
   2.66600000000000        1.00000000000000       0.000000000000000E+000        
  0.000000000000000E+000  0.000000000000000E+000                                
  0.859000000000000       0.000000000000000E+000   1.00000000000000             
  0.000000000000000E+000  0.000000000000000E+000                                
   26.4830000000000       0.000000000000000E+000  0.000000000000000E+000        
   1.00000000000000       0.000000000000000E+000                                
  0.324000000000000       0.000000000000000E+000  0.000000000000000E+000        
  0.000000000000000E+000   1.00000000000000                                     
    2    2                                                                      
   1.84600000000000        1.00000000000000       0.000000000000000E+000        
  0.714000000000000       0.000000000000000E+000   1.00000000000000             
FINISH                                                                          
 
********************************************************************************
 ONE- AND TWO-ELECTRON INTEGRALS OVER SYMMETRY-ADAPTED AOS ARE CALCULATED.

  SPHERICAL HARMONICS ARE USED.
  
  INTEGRALS LESS THAN  0.10E-13 ARE NEGLECTED.

  NUCLEAR REPULSION ENERGY :   14.3589575673 A.U.
  @MOLECU-I, ONE ELECTRON INTEGRALS (CPU/WALL):        0.06/       0.06 SECONDS.
  @TWOEL-I,    4363899 INTEGRALS OF SYMMETRY TYPE  I I I I
  @TWOEL-I,   18829919 INTEGRALS OF SYMMETRY TYPE  I J I J
  @TWOEL-I,    9917303 INTEGRALS OF SYMMETRY TYPE  I I J J
  @TWOEL-I,   13891393 INTEGRALS OF SYMMETRY TYPE  I J K L
  @TWOEL-I, TOTAL NUMBER OF 2-E INTEGRALS   47002514.
  @MOLECU-I, TWO ELECTRON INTEGRALS (CPU/WALL):      192.34/      26.88 SECONDS.
 @CHECKOUT-I, Total execution time (CPU/WALL):      192.43/      26.99 seconds.

Running with 14 threads/proc

--executable xvmol finished with status     0 in       27.06 seconds (walltime).
 --invoking executable--
/nfs/workspaces/public/cfour_mpi/bin/xvmol2ja
 @GETMEM-I,  Allocated    3814 MB of main memory.
 @CHECKOUT-I, Total execution time (CPU/WALL):        0.14/       0.03 seconds.
--executable xvmol2ja finished with status     0 in        0.06 seconds (walltime).
 --invoking executable--
/nfs/workspaces/public/cfour_mpi/bin/xvprop
 @GETMEM-I,  Allocated    3814 MB of main memory.
   Property integrals will be calculated.
    --------------------------------------------------------------
                                   Property evaluated at 
    Property type                X             Y             Z
    --------------------------------------------------------------
    Dipole moment               ----          ----          ----  
    Quadrupole moment           ----          ----          ----  
    Octopole moment             ----          ----          ----  
    Relativisitic corr.         ----          ----          ----  
    Second moment            0.0000000     0.0000000     0.0000000
    Electron density         0.0000000     0.0000000     2.0056792
    Electron density         0.0000000     0.0000000    -1.3371818
    Field gradient           0.0000000     0.0000000     2.0056792
    Field gradient           0.0000000     0.0000000    -1.3371818
    Potential                0.0000000     0.0000000     2.0056792
    Potential                0.0000000     0.0000000    -1.3371818
    --------------------------------------------------------------
 @CHECKOUT-I, Total execution time (CPU/WALL):        1.31/       1.33 seconds.
--executable xvprop finished with status     0 in        1.37 seconds (walltime).
 --invoking executable--
/nfs/workspaces/public/cfour_mpi/bin/xvscf
  There are  218 functions in the AO basis.

  There are 4 irreducible representations.

       Irrep        # of functions
         1                 86
         2                 52
         3                 52
         4                 28


  Parameters for SCF calculation: 
        SCF reference function:  RHF  
  Maximum number of iterations:  150
     Full symmetry point group: CXv 
     Computational point group: C2v 
        Initial density matrix: MOREAD                 
     SCF convergence tolerance: 10**(-10)
  DIIS convergence acceleration:  ON
          Latest start for DIIS:   8
                     DIIS order:   6

  Memory information:    2523578 words required.
  Fock matrices are constructed from AO integral file.
 @GETMEM-I,  Allocated      19 MB of main memory.
  Initialization and symmetry analysis required      0.002 seconds.

  Adding electric field perturbation to one-electron Hamiltonian.
  Field direction     : Z
  Field strength      : -0.0002000 a.u.

  @INITGES-I, Occupancies from core Hamiltonian:

          Alpha population by irrep:   5    1    1    0
           Beta population by irrep:   5    1    1    0


 total no. of electrons in initial guess :  0.000000000000000E+000
  --------------------------------------------------------------------
  Iteration         Total Energy            Largest Density Difference
  --------------------------------------------------------------------
       0            14.359224891337334              0.0000000000D+00
   current occupation vector 
     5  1  1  0
     5  1  1  0
       1           -93.745703325919948              0.1756529651D+02
   current occupation vector 
     5  1  1  0
     5  1  1  0
       2           -97.587937164019309              0.1756529140D+02
   current occupation vector 
     5  1  1  0
     5  1  1  0
       3           -99.747193262643066              0.6997006928D+01
   current occupation vector 
     5  1  1  0
     5  1  1  0
       4           -94.164408183427255              0.6995531906D+01
   current occupation vector 
     5  1  1  0
     5  1  1  0
       5           -99.768401487189678              0.7074887526D+01
   current occupation vector 
     5  1  1  0
     5  1  1  0
       6           -94.073240868744605              0.7074899371D+01
   current occupation vector 
     5  1  1  0
     5  1  1  0
       7           -99.766302313922139              0.7078178967D+01
   current occupation vector 
     5  1  1  0
     5  1  1  0
       8           -94.071216702915834              0.7078180055D+01
   current occupation vector 
     5  1  1  0
     5  1  1  0
       9          -106.761068384874790              0.6125557762D+01
   current occupation vector 
     5  1  1  0
     5  1  1  0
      10          -110.499835617997661              0.1336474207D+01
   current occupation vector 
     5  1  1  0
     5  1  1  0
      11          -112.137964419019568              0.9585339626D+00
   current occupation vector 
     5  1  1  0
     5  1  1  0
      12          -112.306710402133049              0.7451289347D+00
   current occupation vector 
     5  1  1  0
     5  1  1  0
      13          -112.411424951052865              0.1632235251D+00
   current occupation vector 
     5  1  1  0
     5  1  1  0
      14          -112.438405841262480              0.1517555080D+00
   current occupation vector 
     5  1  1  0
     5  1  1  0
      15          -112.440410117502140              0.5585957103D-01
   current occupation vector 
     5  1  1  0
     5  1  1  0
      16          -112.442764202550350              0.9421847308D-01
   current occupation vector 
     5  1  1  0
     5  1  1  0
      17          -112.444492577963970              0.1063460372D+00
   current occupation vector 
     5  1  1  0
     5  1  1  0
      18          -112.444855721868990              0.6259575737D-01
   current occupation vector 
     5  1  1  0
     5  1  1  0
      19          -112.444857540724158              0.2419592775D-02
   current occupation vector 
     5  1  1  0
     5  1  1  0
      20          -112.444857910438998              0.2915177332D-02
   current occupation vector 
     5  1  1  0
     5  1  1  0
      21          -112.444857937776277              0.8106171959D-03
   current occupation vector 
     5  1  1  0
     5  1  1  0
      22          -112.444857940821905              0.2014008356D-03
   current occupation vector 
     5  1  1  0
     5  1  1  0
      23          -112.444857940836982              0.1552328162D-04
   current occupation vector 
     5  1  1  0
     5  1  1  0
      24          -112.444857940837665              0.1093851012D-05
   current occupation vector 
     5  1  1  0
     5  1  1  0
      25          -112.444857940838560              0.1001964751D-06
   current occupation vector 
     5  1  1  0
     5  1  1  0
      26          -112.444857940836201              0.4425559919D-07
   current occupation vector 
     5  1  1  0
     5  1  1  0
      27          -112.444857940838304              0.1470155309D-07
   current occupation vector 
     5  1  1  0
     5  1  1  0
      28          -112.444857940837977              0.2287613565D-07
   current occupation vector 
     5  1  1  0
     5  1  1  0
      29          -112.444857940837366              0.4891935745D-08
   current occupation vector 
     5  1  1  0
     5  1  1  0
      30          -112.444857940839640              0.9541731849D-09
   current occupation vector 
     5  1  1  0
     5  1  1  0
      31          -112.444857940839086              0.2624644946D-09
   current occupation vector 
     5  1  1  0
     5  1  1  0

  SCF has converged.

 Density matrix saved to file den.dat
 total electron number:   14.0000000000000     
     E(SCF)=      -112.444857940838219              0.8431055853D-10

  Eigenvector printing suppressed.

 @PUTMOS-I, Writing converged MOs to NEWMOS. 
 @PUTMOS-I, Symmetry   1 Full Blocks 21 Partial Blocksize   2
 @PUTMOS-I, Symmetry   2 Full Blocks 13 Partial Blocksize   0
 @PUTMOS-I, Symmetry   3 Full Blocks 13 Partial Blocksize   0
 @PUTMOS-I, Symmetry   4 Full Blocks  7 Partial Blocksize   0
 @PUTFOCK-I, Writing converged Fock matrix to NEWFOCK. 
 @PUTFOCK-I, Symmetry   1 Full Blocks 21 Partial Blocksize   2
 @PUTFOCK-I, Symmetry   2 Full Blocks 13 Partial Blocksize   0
 @PUTFOCK-I, Symmetry   3 Full Blocks 13 Partial Blocksize   0
 @PUTFOCK-I, Symmetry   4 Full Blocks  7 Partial Blocksize   0


 
  ORBITAL EIGENVALUES (ALPHA)  (1H = 27.2113834 eV)

       MO #        E(hartree)               E(eV)           FULLSYM    COMPSYM
       ----   --------------------   --------------------   -------   ---------
    1     1         -20.6246476463        -561.2251945925     SG+        A1 (1)
    2     2         -11.5349521947        -313.8820066718     SG+        A1 (1)
    3     3          -1.2261839469         -33.3661614988     SG+        A1 (1)
    4     4          -0.8140609880         -22.1517256556     SG+        A1 (1)
    5     5          -0.4892623454         -13.3135052649     SG+        A1 (1)
    6   139          -0.4777747936         -13.0009130887      PI        B2 (3)
    7    87          -0.4777747936         -13.0009130887      PI        B1 (2)
  +++++++++++++++++++++++++++++++++++++++++++++++++++++++++++++++++++++++++++++
    8   140          -0.0274415029          -0.7467212556      PI        B2 (3)
    9    88          -0.0274415029          -0.7467212556      PI        B1 (2)
   10     6           0.0554410625           1.5086280073     SG+        A1 (1)
   11     7           0.0691350805           1.8812611824     SG+        A1 (1)
   12   141           0.0802890730           2.1847767473      PI        B2 (3)
   13    89           0.0802890730           2.1847767473      PI        B1 (2)
   14     8           0.1479125208           4.0249043119     SG+        A1 (1)
   15     9           0.1628915164           4.4325035066     SG+        A1 (1)
   16   142           0.1845000826           5.0205024858      PI        B2 (3)
   17    90           0.1845000826           5.0205024858      PI        B1 (2)
   18   191           0.2185989854           5.9483808024      DE        A2 (4)
   19    10           0.2185989854           5.9483808024      DE        A1 (1)
   20   143           0.2779797902           7.5642146485      PI        B2 (3)
   21    91           0.2779797902           7.5642146485      PI        B1 (2)
   22    11           0.2853470415           7.7646877494     SG+        A1 (1)
   23    12           0.3060746898           8.3287157344     SG+        A1 (1)
   24    13           0.4074311459          11.0867651189     SG+        A1 (1)
   25    92           0.4109276534          11.1819099266      PI        B1 (2)
   26   144           0.4109276534          11.1819099266      PI        B2 (3)
   27    14           0.5169312224          14.0664136850     SG+        A1 (1)
   28   192           0.5506742370          14.9846077908      DE        A2 (4)
   29    15           0.5506742370          14.9846077908      DE        A1 (1)
   30   145           0.6248155541          17.0020955983      PI        B2 (3)
   31    93           0.6248155541          17.0020955983      PI        B1 (2)
   32    16           0.6963771233          18.9493848936     SG+        A1 (1)
   33   146           0.7230897238          19.6762717076      PH        B2 (3)
   34    94           0.7230897238          19.6762717076      PH        B1 (2)
   35   193           0.7296113834          19.8537350866      DE        A2 (4)
   36    17           0.7296113834          19.8537350866      DE        A1 (1)
   37    95           0.7653735607          20.8268734031      PI        B1 (2)
   38   147           0.7653735607          20.8268734031      PI        B2 (3)
   39    18           0.8028382041          21.8463381791     SG+        A1 (1)
   40    19           0.8438969611          22.9636037597      DE        A1 (1)
   41   194           0.8438969611          22.9636037597      DE        A2 (4)
   42   148           0.8570606302          23.3218054053      PI        B2 (3)
   43    96           0.8570606302          23.3218054053      PI        B1 (2)
   44    20           0.9126245565          24.8337767076     SG+        A1 (1)
   45   149           1.0603164906          28.8526785504      PI        B2 (3)
   46    97           1.0603164906          28.8526785504      PI        B1 (2)
   47    21           1.1556550326          31.4469721690     SG+        A1 (1)
   48    22           1.3105529001          35.6619574319     SG+        A1 (1)
   49   150           1.4179904251          38.5854811158      PH        B2 (3)
   50    98           1.4179904251          38.5854811158      PH        B1 (2)
   51   151           1.4472753828          39.3823653281      PI        B2 (3)
   52    99           1.4472753828          39.3823653281      PI        B1 (2)
   53    23           1.5759741160          42.8844358998     SG+        A1 (1)
   54   195           1.5841785937          43.1076910884      DE        A2 (4)
   55    24           1.5841785937          43.1076910884      DE        A1 (1)
   56   152           1.6427327539          44.7010307893      PI        B2 (3)
   57   100           1.6427327539          44.7010307893      PI        B1 (2)
   58   196           1.6547625112          45.0283771269      DE        A2 (4)
   59    25           1.6547625112          45.0283771269      DE        A1 (1)
   60    26           1.8390447948          50.0429530008     SG+        A1 (1)
   61    27           1.9226266805          52.3173317377     SG+        A1 (1)
   62   153           2.0004577783          54.4352235813      PI        B2 (3)
   63   101           2.0004577783          54.4352235813      PI        B1 (2)
   64   197           2.0526352976          55.8550460640      PI        A2 (4)
   65    28           2.0526352976          55.8550460640      PI        A1 (1)
   66    29           2.1112891921          57.4510996747      DE        A1 (1)
   67   198           2.1112891921          57.4510996747      DE        A2 (4)
   68   154           2.1561346053          58.6714054077      PH        B2 (3)
   69   102           2.1561346053          58.6714054077      PH        B1 (2)
   70   103           2.1927595513          59.6680208549      PH        B1 (2)
   71   155           2.1927595513          59.6680208549      PH        B2 (3)
   72   156           2.1947803779          59.7230103430      PI        B2 (3)
   73   104           2.1947803779          59.7230103430      PI        B1 (2)
   74    30           2.2231250202          60.4943072708     SG+        A1 (1)
   75   199           2.2629157515          61.5770681156      DE        A2 (4)
   76    31           2.2629157515          61.5770681156      DE        A1 (1)
   77    32           2.3485504761          63.9073074385     SG+        A1 (1)
   78   157           2.4525340431          66.7368441476      PI        B2 (3)
   79   105           2.4525340431          66.7368441476      PI        B1 (2)
   80   200           2.5255838831          68.7246313521      DE        A2 (4)
   81    33           2.5255838831          68.7246313521      DE        A1 (1)
   82    34           2.6316995909          71.6121865628     SG+        A1 (1)
   83   158           2.6587079641          72.3471217605      PI        B2 (3)
   84   106           2.6587079641          72.3471217605      PI        B1 (2)
   85    35           2.7952733350          76.0632544267     SG+        A1 (1)
   86   107           3.2149398462          87.4829607636      PI        B1 (2)
   87   159           3.2149398462          87.4829607636      PI        B2 (3)
   88    36           3.7261279934         101.3930974250      PI        A1 (1)
   89   201           3.7261279934         101.3930974250      PI        A2 (4)
   90    37           3.7414156393         101.8090954189     SG+        A1 (1)
   91   108           3.8451609044         104.6321476052      PH        B1 (2)
   92   160           3.8451609044         104.6321476052      PH        B2 (3)
   93    38           4.0538662960         110.3113100334     SG+        A1 (1)
   94    39           4.1137426782         111.9406292242      DE        A1 (1)
   95   202           4.1137426782         111.9406292242      DE        A2 (4)
   96   161           4.1307932334         112.4045984200      PI        B2 (3)
   97   109           4.1307932334         112.4045984200      PI        B1 (2)
   98   162           4.1560061154         113.0906758186      PH        B2 (3)
   99   110           4.1560061154         113.0906758186      PH        B1 (2)
  100    40           4.2860353923         116.6289523248     SG+        A1 (1)
  101    41           4.3141215285         117.3932149454      DE        A1 (1)
  102   203           4.3141215285         117.3932149454      DE        A2 (4)
  103   163           4.4538771731         121.1961593725      PI        B2 (3)
  104   111           4.4538771731         121.1961593725      PI        B1 (2)
  105   204           4.5415525986         123.5819289931      DE        A2 (4)
  106    42           4.5415525987         123.5819289931      DE        A1 (1)
  107    43           4.8373648771         131.6313903166     SG+        A1 (1)
  108   112           4.9706185910         135.2574082152      PI        B1 (2)
  109   164           4.9706185910         135.2574082152      PI        B2 (3)
  110    44           5.0925809745         138.5761733918     SG+        A1 (1)
  111   113           5.3507211860         145.6005256599      PI        B1 (2)
  112   165           5.3507211860         145.6005256600      PI        B2 (3)
  113   205           5.8022550066         157.8873855697      PI        A2 (4)
  114    45           5.8022550066         157.8873855697      PI        A1 (1)
  115   114           5.8741552077         159.8438895072      PH        B1 (2)
  116   166           5.8741552077         159.8438895072      PH        B2 (3)
  117    46           5.8995309978         160.5343998617     SG+        A1 (1)
  118   206           6.0167245348         163.7233981300      DE        A2 (4)
  119    47           6.0167245348         163.7233981300      DE        A1 (1)
  120   167           6.0930744988         165.8009862708      PI        B2 (3)
  121   115           6.0930744988         165.8009862708      PI        B1 (2)
  122    48           6.1172796032         166.4596406474     SG+        A1 (1)
  123   207           6.2307706911         169.5478901543      DE        A2 (4)
  124    49           6.2307706911         169.5478901543      DE        A1 (1)
  125   168           6.3267527322         172.1596942738      PH        B2 (3)
  126   116           6.3267527322         172.1596942738      PH        B1 (2)
  127   208           6.4523925545         175.5785276484      DE        A2 (4)
  128    50           6.4523925545         175.5785276485      DE        A1 (1)
  129   117           6.6511481748         180.9869430344      PI        B1 (2)
  130   169           6.6511481748         180.9869430344      PI        B2 (3)
  131   118           6.9023532784         187.8225814211      PI        B1 (2)
  132   170           6.9023532784         187.8225814211      PI        B2 (3)
  133    51           7.0220647475         191.0800961037     SG+        A1 (1)
  134    52           7.3477851166         199.9433979486     SG+        A1 (1)
  135    53           9.2250016676         251.0250572428     SG+        A1 (1)
  136   119           9.5618348731         260.1907547393      PI        B1 (2)
  137   171           9.5618348731         260.1907547395      PI        B2 (3)
  138    54          10.6177027596         288.9223806197     SG+        A1 (1)
  139    55          10.6907426692         290.9098976036      PI        A1 (1)
  140   209          10.6907426692         290.9098976036      PI        A2 (4)
  141   172          10.7220286750         291.7612331008      PH        B2 (3)
  142   120          10.7220286750         291.7612331008      PH        B1 (2)
  143   210          10.8998902364         296.6010922397      DE        A2 (4)
  144    56          10.8998902364         296.6010922397      DE        A1 (1)
  145   173          11.0055743679         299.4769036617      PI        B2 (3)
  146   121          11.0055743679         299.4769036617      PI        B1 (2)
  147    57          11.0660489500         301.1225007011     SG+        A1 (1)
  148   174          11.9247043986         324.4877033231      PH        B2 (3)
  149   122          11.9247043986         324.4877033231      PH        B1 (2)
  150   211          11.9712208125         325.7534792938      DE        A2 (4)
  151    58          11.9712208125         325.7534792939      DE        A1 (1)
  152   123          12.1380611162         330.2934347651      PI        B1 (2)
  153   175          12.1380611162         330.2934347651      PI        B2 (3)
  154    59          12.4204134562         337.9766325443     SG+        A1 (1)
  155    60          12.7253414072         346.2741439285      DE        A1 (1)
  156   212          12.7253414072         346.2741439285      DE        A2 (4)
  157   124          13.0723545569         355.7168517896      PI        B1 (2)
  158   176          13.0723545569         355.7168517896      PI        B2 (3)
  159    61          13.2941163632         361.7512973227     SG+        A1 (1)
  160    62          17.1217137259         465.9055166615     SG+        A1 (1)
  161   125          18.6453625199         507.3661081601      PI        B1 (2)
  162   177          18.6453625199         507.3661081604      PI        B2 (3)
  163    63          19.3095201308         525.4387555496     SG+        A1 (1)
  164   213          26.2288147835         713.7223352015      DE        A2 (4)
  165    64          26.2288147835         713.7223352015      DE        A1 (1)
  166   178          26.4124266686         718.7186686043      PI        B2 (3)
  167   126          26.4124266686         718.7186686043      PI        B1 (2)
  168    65          26.8009413409         729.2906903084     SG+        A1 (1)
  169   127          33.3103296799         906.4201520999      PI        B1 (2)
  170   179          33.3103296799         906.4201521007      PI        B2 (3)
  171    66          34.0486520605         926.5109254712     SG+        A1 (1)
  172    67          35.4831136843         965.5446106904     SG+        A1 (1)
  173   214          47.0886829653        1281.3482059708      DE        A2 (4)
  174    68          47.0886829653        1281.3482059709      DE        A1 (1)
  175   128          47.2527076332        1285.8115440961      PI        B1 (2)
  176   180          47.2527076332        1285.8115440962      PI        B2 (3)
  177    69          47.3816240309        1289.3195376183     SG+        A1 (1)
  178    70          63.5886770237        1730.3358703909     SG+        A1 (1)
  179   129          66.2453929411        1802.6287858038      PI        B1 (2)
  180   181          66.2453929411        1802.6287858041      PI        B2 (3)
  181    71          66.7452038449        1816.2293319357     SG+        A1 (1)
  182   182          98.4909256564        2680.0743394571      PH        B2 (3)
  183   130          98.4909256564        2680.0743394571      PH        B1 (2)
  184   215          98.5072603114        2680.5188280175      DE        A2 (4)
  185    72          98.5072603114        2680.5188280175      DE        A1 (1)
  186   183          98.5221534162        2680.9240900008      PI        B2 (3)
  187   131          98.5221534162        2680.9240900008      PI        B1 (2)
  188    73          98.5282654360        2681.0904065159     SG+        A1 (1)
  189   216         103.3283803252        2811.7081731294      DE        A2 (4)
  190    74         103.3283803252        2811.7081731299      DE        A1 (1)
  191   132         103.3309746012        2811.7787669690      PI        B1 (2)
  192   184         103.3309746012        2811.7787669690      PI        B2 (3)
  193    75         103.3424330196        2812.0905663856     SG+        A1 (1)
  194   185         103.3438203627        2812.1283179104      PH        B2 (3)
  195   133         103.3438203627        2812.1283179104      PH        B1 (2)
  196    76         114.9400280776        3127.6771720267      DE        A1 (1)
  197   217         114.9400280776        3127.6771720267      DE        A2 (4)
  198   186         115.0301645933        3130.1299113134      PI        B2 (3)
  199   134         115.0301645933        3130.1299113134      PI        B1 (2)
  200    77         115.1932680066        3134.5681808268     SG+        A1 (1)
  201   135         116.6384215390        3173.8928076681      PI        B1 (2)
  202   187         116.6384215390        3173.8928076687      PI        B2 (3)
  203    78         117.2708098428        3191.1009682611     SG+        A1 (1)
  204    79         121.7407160921        3312.7333009739     SG+        A1 (1)
  205   218         198.5742412257        5403.4798113570      DE        A2 (4)
  206    80         198.5742412257        5403.4798113572      DE        A1 (1)
  207   136         198.6633734953        5405.9052237188      PI        B1 (2)
  208   188         198.6633734953        5405.9052237188      PI        B2 (3)
  209    81         198.7326370555        5407.7899810106     SG+        A1 (1)
  210    82         216.1293105265        5881.1775327147     SG+        A1 (1)
  211   137         224.7381550216        6115.4361009016      PI        B1 (2)
  212   189         224.7381550216        6115.4361009018      PI        B2 (3)
  213    83         225.1316898048        6126.1447267673     SG+        A1 (1)
  214   138         395.1973409358       10753.8663628646      PI        B1 (2)
  215   190         395.1973409358       10753.8663628649      PI        B2 (3)
  216    84         395.6829298984       10767.0799103014     SG+        A1 (1)
  217    85         508.5029238091       13837.0680197910     SG+        A1 (1)
  218    86         894.9404564961       24352.5678818853     SG+        A1 (1)


  VSCF finished.

 @CHECKOUT-I, Total execution time (CPU/WALL):       54.31/       9.78 seconds.
--executable xvscf finished with status     0 in        9.85 seconds (walltime).
 --invoking executable--
/nfs/workspaces/public/cfour_mpi/bin/xvtran
 @GETMEM-I,  Allocated    3814 MB of main memory.
  Full RHF integral transformation
  Transformation of IIII integrals :
  1 pass through the AO integral file was required.
     4363899 AO integrals were read.
     8549574 MO integrals were written to HF2.
  Transformation of IIJJ integrals :
  1 pass through the AO integral file was required.
     9917303 AO integrals were read.
    14300913 MO integrals were written to HF2.
  Transformation of IJIJ integrals :
  1 pass through the AO integral file was required.
    18829919 AO integrals were read.
    26609676 MO integrals were written to HF2.
  Transformation of IJKL integrals :
  1 pass through the AO integral file was required.
    13891393 AO integrals were read.
    17981455 MO integrals were written to HF2.
  Summary of active molecular orbitals: 
------------------------------------------------------------------------
 
  Index      Eigenvalue    Symmetry    Index      Eigenvalue    Symmetry
------------------------------------------------------------------------
     1       -20.6246476        1       110         4.1307932        2
     2       -11.5349522        1       111         4.1560061        2
     3        -1.2261839        1       112         4.4538772        2
     4        -0.8140610        1       113         4.9706186        2
     5        -0.4892623        1       114         5.3507212        2
     6        -0.4777748        2       115         5.8741552        2
     7        -0.4777748        3       116         6.0930745        2
     8         0.0554411        1       117         6.3267527        2
     9         0.0691351        1       118         6.6511482        2
    10         0.1479125        1       119         6.9023533        2
    11         0.1628915        1       120         9.5618349        2
    12         0.2185990        1       121        10.7220287        2
    13         0.2853470        1       122        11.0055744        2
    14         0.3060747        1       123        11.9247044        2
    15         0.4074311        1       124        12.1380611        2
    16         0.5169312        1       125        13.0723546        2
    17         0.5506742        1       126        18.6453625        2
    18         0.6963771        1       127        26.4124267        2
    19         0.7296114        1       128        33.3103297        2
    20         0.8028382        1       129        47.2527076        2
    21         0.8438970        1       130        66.2453929        2
    22         0.9126246        1       131        98.4909257        2
    23         1.1556550        1       132        98.5221534        2
    24         1.3105529        1       133       103.3309746        2
    25         1.5759741        1       134       103.3438204        2
    26         1.5841786        1       135       115.0301646        2
    27         1.6547625        1       136       116.6384215        2
    28         1.8390448        1       137       198.6633735        2
    29         1.9226267        1       138       224.7381550        2
    30         2.0526353        1       139       395.1973409        2
    31         2.1112892        1       140        -0.0274415        3
    32         2.2231250        1       141         0.0802891        3
    33         2.2629158        1       142         0.1845001        3
    34         2.3485505        1       143         0.2779798        3
    35         2.5255839        1       144         0.4109277        3
    36         2.6316996        1       145         0.6248156        3
    37         2.7952733        1       146         0.7230897        3
    38         3.7261280        1       147         0.7653736        3
    39         3.7414156        1       148         0.8570606        3
    40         4.0538663        1       149         1.0603165        3
    41         4.1137427        1       150         1.4179904        3
    42         4.2860354        1       151         1.4472754        3
    43         4.3141215        1       152         1.6427328        3
    44         4.5415526        1       153         2.0004578        3
    45         4.8373649        1       154         2.1561346        3
    46         5.0925810        1       155         2.1927596        3
    47         5.8022550        1       156         2.1947804        3
    48         5.8995310        1       157         2.4525340        3
    49         6.0167245        1       158         2.6587080        3
    50         6.1172796        1       159         3.2149398        3
    51         6.2307707        1       160         3.8451609        3
    52         6.4523926        1       161         4.1307932        3
    53         7.0220647        1       162         4.1560061        3
    54         7.3477851        1       163         4.4538772        3
    55         9.2250017        1       164         4.9706186        3
    56        10.6177028        1       165         5.3507212        3
    57        10.6907427        1       166         5.8741552        3
    58        10.8998902        1       167         6.0930745        3
    59        11.0660489        1       168         6.3267527        3
    60        11.9712208        1       169         6.6511482        3
    61        12.4204135        1       170         6.9023533        3
    62        12.7253414        1       171         9.5618349        3
    63        13.2941164        1       172        10.7220287        3
    64        17.1217137        1       173        11.0055744        3
    65        19.3095201        1       174        11.9247044        3
    66        26.2288148        1       175        12.1380611        3
    67        26.8009413        1       176        13.0723546        3
    68        34.0486521        1       177        18.6453625        3
    69        35.4831137        1       178        26.4124267        3
    70        47.0886830        1       179        33.3103297        3
    71        47.3816240        1       180        47.2527076        3
    72        63.5886770        1       181        66.2453929        3
    73        66.7452038        1       182        98.4909257        3
    74        98.5072603        1       183        98.5221534        3
    75        98.5282654        1       184       103.3309746        3
    76       103.3283803        1       185       103.3438204        3
    77       103.3424330        1       186       115.0301646        3
    78       114.9400281        1       187       116.6384215        3
    79       115.1932680        1       188       198.6633735        3
    80       117.2708098        1       189       224.7381550        3
    81       121.7407161        1       190       395.1973409        3
    82       198.5742412        1       191         0.2185990        4
    83       198.7326371        1       192         0.5506742        4
    84       216.1293105        1       193         0.7296114        4
    85       225.1316898        1       194         0.8438970        4
    86       395.6829299        1       195         1.5841786        4
    87       508.5029238        1       196         1.6547625        4
    88       894.9404565        1       197         2.0526353        4
    89        -0.0274415        2       198         2.1112892        4
    90         0.0802891        2       199         2.2629158        4
    91         0.1845001        2       200         2.5255839        4
    92         0.2779798        2       201         3.7261280        4
    93         0.4109277        2       202         4.1137427        4
    94         0.6248156        2       203         4.3141215        4
    95         0.7230897        2       204         4.5415526        4
    96         0.7653736        2       205         5.8022550        4
    97         0.8570606        2       206         6.0167245        4
    98         1.0603165        2       207         6.2307707        4
    99         1.4179904        2       208         6.4523926        4
   100         1.4472754        2       209        10.6907427        4
   101         1.6427328        2       210        10.8998902        4
   102         2.0004578        2       211        11.9712208        4
   103         2.1561346        2       212        12.7253414        4
   104         2.1927596        2       213        26.2288148        4
   105         2.1947804        2       214        47.0886830        4
   106         2.4525340        2       215        98.5072603        4
   107         2.6587080        2       216       103.3283803        4
   108         3.2149398        2       217       114.9400281        4
   109         3.8451609        2       218       198.5742412        4
------------------------------------------------------------------------
  -20.6246476462691       -11.5349521947406       -1.22618394692705     
 -0.814060988005651      -0.489262345438406      -0.477774793645555     
 -0.477774793645583       5.544106248153340E-002  6.913508051972102E-002
  0.147912520754114       0.162891516445621       0.218598985394267     
  0.285347041541768       0.306074689845752       0.407431145854526     
  0.516931222430406       0.550674236975691       0.696377123319794     
  0.729611383396474       0.802838204067808       0.843896961140092     
  0.912624556516002        1.15565503255387        1.31055290014832     
   1.57597411603081        1.58417859374429        1.65476251115265     
   1.83904479478948        1.92262668048184        2.05263529762489     
   2.11128919210612        2.22312502020162        2.26291575148812     
   2.34855047606651        2.52558388310634        2.63169959094446     
   2.79527333500849        3.72612799336812        3.74141563926710     
   4.05386629602374        4.11374267815447        4.28603539226159     
[...]
 Convergence information after    22 iterations: 
 Largest element of residual vector :  0.15083634E-06.
 Largest element of DIIS residual   :  0.94979243E-07.
 Perturbed amplitude equations converged in    22 iterations.
  Dominant contributions to perturbed wavefunction:
    7    0   46    0   0.3425010089 AA  
    7    0   22    0   0.2888758727 AA  
    7    0   32    0   0.2328510830 AA  
    7    0   36    0   0.2300632439 AA  
    7    7  140   46  -0.2271396068 ABAB
    7    7   46  140  -0.2271396068 ABAB
    7    0   28    0   0.2242148972 AA  
    7    7  140   22  -0.2237510600 ABAB
    7    7   22  140  -0.2237510600 ABAB
    7    0   54    0  -0.2083449842 AA  
    7    0   16    0  -0.2035771487 AA  
    7    0   25    0   0.1998300174 AA  
    7    0   56    0   0.1890310052 AA  
    7    7  140   32  -0.1887624862 ABAB
    7    7   32  140  -0.1887624862 ABAB
    7    0   24    0   0.1794131554 AA  
    7    0   37    0   0.1775193123 AA  
    7    0   39    0   0.1717021434 AA  
    7    0   63    0  -0.1602769052 AA  
    7    7  140   36  -0.1529493264 ABAB
  norm of converged amps    1.56923283648209     
 Starting iterative solution of the perturbed Lambda equations.
 The DIIS procedure is used to accelerate convergence.
 Convergence criterion is 10**(-7).
 Maximum number of iterations is 100.
 Convergence information after     1 iterations: 
 Largest element of residual vector :  0.75828244E-01.
 Largest element of DIIS residual   :  0.75828244E-01.
 Convergence information after     2 iterations: 
 Largest element of residual vector :  0.21273298E-01.
 Largest element of DIIS residual   :  0.14895409E-01.
 Convergence information after     3 iterations: 
 Largest element of residual vector :  0.67023881E-02.
 Largest element of DIIS residual   :  0.55215652E-02.
 Convergence information after     4 iterations: 
 Largest element of residual vector :  0.29352539E-02.
 Largest element of DIIS residual   :  0.28319873E-02.
 Convergence information after     5 iterations: 
 Largest element of residual vector :  0.29538245E-02.
 Largest element of DIIS residual   :  0.26238331E-02.
 Convergence information after     6 iterations: 
 Largest element of residual vector :  0.18211829E-02.
 Largest element of DIIS residual   :  0.97111056E-03.
 Convergence information after     7 iterations: 
 Largest element of residual vector :  0.10472710E-02.
 Largest element of DIIS residual   :  0.50308307E-03.
 Convergence information after     8 iterations: 
 Largest element of residual vector :  0.39617360E-03.
 Largest element of DIIS residual   :  0.19446735E-03.
 Convergence information after     9 iterations: 
 Largest element of residual vector :  0.15931432E-03.
 Largest element of DIIS residual   :  0.99182759E-04.
 Convergence information after    10 iterations: 
 Largest element of residual vector :  0.11794379E-03.
 Largest element of DIIS residual   :  0.83279285E-04.
 Convergence information after    11 iterations: 
 Largest element of residual vector :  0.41023525E-04.
 Largest element of DIIS residual   : -0.21973307E-04.
 Convergence information after    12 iterations: 
 Largest element of residual vector :  0.31421342E-04.
 Largest element of DIIS residual   :  0.15796706E-04.
 Convergence information after    13 iterations: 
 Largest element of residual vector :  0.94228636E-05.
 Largest element of DIIS residual   :  0.69205450E-05.
 Convergence information after    14 iterations: 
 Largest element of residual vector :  0.84705256E-05.
 Largest element of DIIS residual   :  0.40466055E-05.
 Convergence information after    15 iterations: 
 Largest element of residual vector :  0.47641208E-05.
 Largest element of DIIS residual   :  0.25215875E-05.
 Convergence information after    16 iterations: 
 Largest element of residual vector :  0.19148770E-05.
 Largest element of DIIS residual   :  0.56879962E-06.
 Convergence information after    17 iterations: 
 Largest element of residual vector :  0.11218236E-05.
 Largest element of DIIS residual   :  0.55863614E-06.
 Convergence information after    18 iterations: 
 Largest element of residual vector :  0.28025651E-06.
 Largest element of DIIS residual   : -0.18206811E-06.
 Convergence information after    19 iterations: 
 Largest element of residual vector :  0.25412801E-06.
 Largest element of DIIS residual   :  0.12896511E-06.
 Convergence information after    20 iterations: 
 Largest element of residual vector :  0.89555695E-07.
 Largest element of DIIS residual   :  0.68168927E-07.
 Perturbed Lambda equations converged in    20 iterations.
  Dominant contributions to perturbed wavefunction:
    7    7  140   22  -0.1478594885 ABAB
    7    7   22  140  -0.1478594885 ABAB
    7    7  140   46  -0.1456947704 ABAB
    7    7   46  140  -0.1456947704 ABAB
    7    7  140   32  -0.1255494593 ABAB
    7    7   32  140  -0.1255494593 ABAB
    7    0   46    0   0.0995646297 AA  
    7    7  140   36  -0.0986408493 ABAB
    7    7   36  140  -0.0986408493 ABAB
    7    6   22   89  -0.0938067036 ABAB
    6    7   89   22  -0.0938067036 ABAB
    7    6   46   89  -0.0935388088 ABAB
    6    7   89   46  -0.0935388088 ABAB
    7    7  140   16   0.0928197025 ABAB
    7    7   16  140   0.0928197025 ABAB
    7    7  140   56  -0.0921385437 ABAB
    7    7   56  140  -0.0921385437 ABAB
    7    7  140   28  -0.0904060020 ABAB
    7    7   28  140  -0.0904060020 ABAB
    7    7  140   39  -0.0858570340 ABAB
        The DBOC first-order density matrix is being calculated 
             (Symmetry block 3, perturbation   2)
 term   2.59955222728939     
 final tnorm  0.641625657742553     
  norm contr. I: |<0|L dT/dx|0>|^2   0.000000000000000E+000
  norm contr. II: <0|[nabla(1+L)e-T][nabla e^T]|0>   2.59955222728939     
  total norm contribution   2.59955222728939     
 oo  1.217433339609630E-002
 vv  -17.2577439356520     
 vo -2.296617068335179E-002
  Correlated perturbed 1-el contribution to DBOC  -17.2685357729392       cm**-1
  SUM_I |dc_I/dx|^2 contribution to DBOC   8.69653880128422       cm**-1
 
 
  The total diagonal Born-Oppenheimer correction (DBOC) is:      0.0038648723 a.u.
  The total diagonal Born-Oppenheimer correction (DBOC) is:        848.241430 cm-1
 
 Total CC energy including DBOC  -113.002012563262     
 First-order density matrix is being calculated  (Symmetry block 3, perturbation   2)
 Calculation of the contributions of <pq||rs> to dI(i,j)/dx required   3.1 seconds.
 Calculation of the contributions of <pq||rs> to dI(a,b)/dx required  13.9 seconds.
 Calculation of the contributions of <pq||rs> to dI(i,a)/dx required   8.6 seconds.
 First-order Z-vector equations are solved for 1 perturbation.
 Convergence reached after  20 iterations.
        U*G(pq,rs) contribution is being calculated
             (Symmetry block 3, perturbation   2)

 CCSD contribution to force constants 

        0.0000000000        0.0000000000        0.0000000000
        0.0000000000        0.0000000000        0.0000000000
        0.0000000000        0.0000000000        0.0000000000
        0.0000000000        0.0000000000        0.0000000000
        0.0000000000        0.0000000000        0.0000000000
        0.0000000000        0.0000000000        0.0000000000
        0.0000000000        0.0000000000        0.0000000000
        0.0000000000        0.0000000000        0.0000000000
        0.0000000000        0.0000000000        0.0000000000
        0.0000000000        0.0000000000        0.0000000000
        0.0000000000        0.0000000000        0.0000000000
        0.0000000000      -11.1666219060       11.1666219060

 CCSD contribution to dipole derivatives 

        0.0000000000        0.0000000000        0.0000000000
        0.0000000000        0.0000000000        0.0000000000
        0.0000000000        0.0000000000        0.0000000000
        0.0000000000        0.0000000000       -0.0549664310
        0.0000000000        0.0000000000        0.0000000000
        0.0000000000        0.0000000000        0.0000000000
 @CHECKOUT-I, Total execution time (CPU/WALL):     1287.89/     464.01 seconds.
--executable xsdcc finished with status     0 in      464.22 seconds (walltime).
 --invoking executable--
/nfs/workspaces/public/cfour_mpi/bin/xanti
 @GETMEM-I,  Allocated    3814 MB of main memory.
 CCSD MO derivative gammas will be sorted to Mulliken order.
 @CHECKOUT-I, Total execution time (CPU/WALL):       11.62/      25.43 seconds.
--executable xanti finished with status     0 in       25.57 seconds (walltime).
 --invoking executable--
/nfs/workspaces/public/cfour_mpi/bin/xbcktrn
 @GETMEM-I,  Allocated    3814 MB of main memory.
 CCSD MO derivative gammas will be transformed to the AO basis.
 @CHECKOUT-I, Total execution time (CPU/WALL):       21.03/       4.09 seconds.
--executable xbcktrn finished with status     0 in        4.16 seconds (walltime).
 --invoking executable--
/nfs/workspaces/public/cfour_mpi/bin/xvdint
 @GETMEM-I,  Allocated    3814 MB of main memory.
 One- and two-electron integral derivatives are calculated
 for RHF-CC/MBPT hessians and dipole derivatives.
 Spherical gaussians are used.
  magnet F F
                    8722  records have been written to the Sort file.
  Total length of Sort file :             178609116  words.
 Evaluation of 2el integral derivatives

                      Two-electron integral gradient
                      ------------------------------

                         C #1 z     0.0000000000
                         O #2 z     0.0000000000


 C #1       0.0000000000            0.0608360605            0.0000000000
 O #2       0.0000000000           -0.0608360605            0.0000000000


 Evaluation of 2e integral derivatives required  312.10 seconds.
  contribution to Hessian
        0.0000000000        0.0000000000        0.0000000000
        0.0000000000        0.0608360605       -0.0608360605
 @CHECKOUT-I, Total execution time (CPU/WALL):      312.08/      77.58 seconds.
--executable xvdint finished with status     0 in       77.74 seconds (walltime).
 --invoking executable--
/nfs/workspaces/public/cfour_mpi/bin/xanti
 @GETMEM-I,  Allocated    3814 MB of main memory.
 CCSD MO gammas will be sorted to Mulliken order.
 @CHECKOUT-I, Total execution time (CPU/WALL):       16.81/      60.21 seconds.
--executable xanti finished with status     0 in       60.33 seconds (walltime).
 --invoking executable--
/nfs/workspaces/public/cfour_mpi/bin/xbcktrn
 @GETMEM-I,  Allocated    3814 MB of main memory.
 CCSD MO gammas will be transformed to the AO basis.
 @CHECKOUT-I, Total execution time (CPU/WALL):       42.05/       7.64 seconds.
--executable xbcktrn finished with status     0 in        7.70 seconds (walltime).
 --invoking executable--
/nfs/workspaces/public/cfour_mpi/bin/xvdint
 @GETMEM-I,  Allocated    3814 MB of main memory.
 One- and two-electron integral derivatives are calculated
 for RHF-CC/MBPT hessians and dipole derivatives.
 Spherical gaussians are used.
  magnet F F

                     Kinetic energy integral gradient
                     --------------------------------

                         C #1 z    -0.3697719626
                         O #2 z     0.3697719626


 C #1       0.0000000000            0.0000000000           -0.3697719626
 O #2       0.0000000000            0.0000000000            0.3697719626



                   Nuclear attraction integral gradient
                   ------------------------------------

                         C #1 z    11.4300156070
                         O #2 z   -11.4300156070


 C #1       0.0000000000            0.0000000000           11.4300156070
 O #2       0.0000000000            0.0000000000          -11.4300156070



                      Reorthonormalization gradient
                      -----------------------------

                         C #1 z     0.0000000000
                         O #2 z     0.0000000000


 C #1       0.0000000000            0.0000000000            0.0000000000
 O #2       0.0000000000            0.0000000000            0.0000000000



                     Kinetic energy integral Hessian
                     -------------------------------


           Symmetry 1

           C #1 z      O #2 z

 C #1 z    0.394253
 O #2 z   -0.394253    0.394253


           Symmetry 2

           C #1 x      O #2 x

 C #1 x   -0.239216
 O #2 x    0.239216   -0.239216


           Symmetry 3

           C #1 y      O #2 y

 C #1 y   -0.239216
 O #2 y    0.239216   -0.239216




           C #1 x      C #1 y      C #1 z      O #2 x      O #2 y      O #2 z

 C #1 x   -0.239216
 C #1 y    0.000000   -0.239216
 C #1 z    0.000000    0.000000    0.394253

 O #2 x    0.239216    0.000000    0.000000   -0.239216
 O #2 y    0.000000    0.239216    0.000000    0.000000   -0.239216
 O #2 z    0.000000    0.000000   -0.394253    0.000000    0.000000    0.394253




                   Nuclear attraction integral Hessian
                   -----------------------------------


           Symmetry 1

           C #1 z      O #2 z

 C #1 z   -6.725891
 O #2 z    6.725891   -6.725891


           Symmetry 2

           C #1 x      O #2 x

 C #1 x    5.247037
 O #2 x   -5.247037    5.247037


           Symmetry 3

           C #1 y      O #2 y

 C #1 y    5.247037
 O #2 y   -5.247037    5.247037




           C #1 x      C #1 y      C #1 z      O #2 x      O #2 y      O #2 z

 C #1 x    5.247037
 C #1 y    0.000000    5.247037
 C #1 z    0.000000    0.000000   -6.725891

 O #2 x   -5.247037    0.000000    0.000000    5.247037
 O #2 y    0.000000   -5.247037    0.000000    0.000000    5.247037
 O #2 z    0.000000    0.000000    6.725891    0.000000    0.000000   -6.725891




                Highest order reorthonormalization Hessian
                ------------------------------------------


           Symmetry 1

           C #1 z      O #2 z

 C #1 z    0.000000
 O #2 z    0.000000    0.000000


           Symmetry 2

           C #1 x      O #2 x

 C #1 x    0.000000
 O #2 x    0.000000    0.000000


           Symmetry 3

           C #1 y      O #2 y

 C #1 y    0.000000
 O #2 y    0.000000    0.000000




           C #1 x      C #1 y      C #1 z      O #2 x      O #2 y      O #2 z




                Electronic contributions to dipole moment
                -----------------------------------------

                               au             Debye

                    z     -0.74794057     -1.90107564

  Conversion factor used: 1 a.u. =   2.54174691 Debye 



   Electronic contributions to static part of dipole moment derivatives
   --------------------------------------------------------------------


                     Total dipole moment derivatives
                     -------------------------------


           Symmetry 1
                              Ez

               C #1 z    -5.64923954
               O #2 z    -8.35076046

           Symmetry 2
                              Ex

               C #1 x    -5.69852231
               O #2 x    -8.30147769

           Symmetry 3
                              Ey

               C #1 y    -5.69852231
               O #2 y    -8.30147769



                       Ex          Ey          Ez

      C #1    x   -5.698522    0.000000    0.000000
      C #1    y    0.000000   -5.698522    0.000000
      C #1    z    0.000000    0.000000   -5.649240

      O #2    x   -8.301478    0.000000    0.000000
      O #2    y    0.000000   -8.301478    0.000000
      O #2    z    0.000000    0.000000   -8.350760

 Evaluation of 1e integral derivatives required    1.68 seconds.
                    8815  records have been written to the Sort file.
  Total length of Sort file :             180513570  words.
 Evaluation of 2el integral derivatives

                      Two-electron integral gradient
                      ------------------------------

                         C #1 z    -6.2727304964
                         O #2 z     6.2727304964


 C #1       0.0000000000            0.0000000000           -6.2727304964
 O #2       0.0000000000            0.0000000000            6.2727304964


 Evaluation of 2e integral derivatives required  620.89 seconds.

                            Molecular gradient
                            ------------------

                         C #1 z     0.4921035143
                         O #2 z    -0.4921035143


 C #1       0.0000000000            0.0000000000            0.4921035143
 O #2       0.0000000000            0.0000000000           -0.4921035143


  Molecular gradient norm 0.696E+00

                            Molecular hessian
                            -----------------


           Symmetry 1

           C #1 z      O #2 z

 C #1 z    6.744659
 O #2 z   -6.744659    6.744659


           Symmetry 2

           C #1 x      O #2 x

 C #1 x   11.327515
 O #2 x  -11.327515   11.327515


           Symmetry 3

           C #1 y      O #2 y

 C #1 y   11.327515
 O #2 y  -11.327515   11.327515




           C #1 x      C #1 y      C #1 z      O #2 x      O #2 y      O #2 z

 C #1 x   11.327515
 C #1 y    0.000000   11.327515
 C #1 z    0.000000    0.000000    6.744659

 O #2 x  -11.327515    0.000000    0.000000   11.327515
 O #2 y    0.000000  -11.327515    0.000000    0.000000   11.327515
 O #2 z    0.000000    0.000000   -6.744659    0.000000    0.000000    6.744659




                           Total dipole moment
                           -------------------

                               au             Debye

                    z      0.58867986      1.49627522

  Conversion factor used: 1 a.u. =   2.54174691 Debye 



                     Total dipole moment derivatives
                     -------------------------------


           Symmetry 1
                              Ez

               C #1 z     0.37020904
               O #2 z    -0.37020904

           Symmetry 2
                              Ex

               C #1 x     0.19257742
               O #2 x    -0.19257742

           Symmetry 3
                              Ey

               C #1 y     0.19257742
               O #2 y    -0.19257742



                       Ex          Ey          Ez

      C #1    x    0.192577    0.000000    0.000000
      C #1    y    0.000000    0.192577    0.000000
      C #1    z    0.000000    0.000000    0.370209

      O #2    x   -0.192577    0.000000    0.000000
      O #2    y    0.000000   -0.192577    0.000000
      O #2    z    0.000000    0.000000   -0.370209

 @CHECKOUT-I, Total execution time (CPU/WALL):      622.55/     106.23 seconds.
--executable xvdint finished with status     0 in      106.42 seconds (walltime).
 --invoking executable--
/nfs/workspaces/public/cfour_mpi/bin/xjoda
  @GTFLGS-I, Hessian will be transformed to curvilinear coordinates.
  @GTFLGS-I, Hessian will be transformed to curvilinear coordinates.
  igrd and ihes are                      0                     1
  gradient from JOBARC 
   0.000000000000000   0.000000000000000   0.492103514303055
   0.000000000000000   0.000000000000000  -0.492103514303055
 
  @PROJFCM-I, Projecting force constant matrix onto totally symmetric subspace.
  Largest difference between matrix elements of symmetrized
  and unsymmetrized FCM :     0.1296740493E-12.
  read isotopes from ZMAT file 
 
  Summary of diagonal Born-Oppenheimer correction at the correlated level
  The total diagonal Born-Oppenheimer correction (DBOC) is:      0.0038648723 a.u.
  The total diagonal Born-Oppenheimer correction (DBOC) is:        848.241430 cm-1
  The total diagonal Born-Oppenheimer correction (DBOC) is:            10.147 kJ/mole
  hellooooooo 
  readis is  F
 
 @CHECKOUT-I, Total execution time (CPU/WALL):        0.02/       0.08 seconds.
--executable xjoda finished with status     0 in        0.11 seconds (walltime).
  The final electronic energy is      -113.002012563261658 a.u. 
  This computation required                         4156.52 seconds (walltime).
