 --invoking executable--
/nfs/workspaces/public/cfour_mpi/bin/xjoda


   *************************************************************************
         <<<     CCCCCC     CCCCCC   |||     CCCCCC     CCCCCC   >>>
       <<<      CCC        CCC       |||    CCC        CCC         >>>
      <<<      CCC        CCC        |||   CCC        CCC            >>>
    <<<        CCC        CCC        |||   CCC        CCC              >>>
      <<<      CCC        CCC        |||   CCC        CCC            >>>
       <<<      CCC        CCC       |||    CCC        CCC         >>>
         <<<     CCCCCC     CCCCCC   |||     CCCCCC     CCCCCC   >>>
   *************************************************************************

     ****************************************************************
     * CFOUR Coupled-Cluster techniques for Computational Chemistry *
     ****************************************************************
 

   Department of Chemistry                Institut fuer Physikalische Chemie
   University of Florida                  Universitaet Mainz
   Gainesville, FL 32611, USA             D-55099 Mainz, Germany

   Department of Chemistry                Fakultaet fuer Chemie und Biowiss.
   Johns Hopkins University               Karlsruher Institut fuer Technologie
   Baltimore, MD 21218, USA               D-76131 Karlsruhe, Germany

   Department of Chemistry                Department of Physical Chemistry
   Southern Methodist University          Eotvos Lorand University
   Dallas, TX 75275, USA                  H-1053 Budapest, Hungary

 
                       Version 2.1
 
                     vincent.theory.phys.ucl.ac.uk                     
                     Sun  2 Mar 12:59:02 GMT 2025                      
                     integer*8 version is running
 
********************************************************************************
*                          Input from ZMAT file                                *
********************************************************************************
Carbon Monoxide DBOC calculation                                                
C                                                                               
O 1 r                                                                           
                                                                                
r=1.3344827586206895                                                            
                                                                                
                                                                                
*CFOUR(CALC=CCSD,BASIS=AUG-PCVQZ,SCF_CONV=10                                    
CC_CONV=14,DBOC=ON,MEMORY=500000000                                             
ZFIELD=200)                                                                     
                                                                                
%isotopes                                                                       
12                                                                              
18                                                                              
********************************************************************************
  @GTFLGS-I, Hessian will be transformed to curvilinear coordinates.
    -------------------------------------------------------------------
                    CFOUR Control Parameters 
    -------------------------------------------------------------------
        External           Internal           Value            Units
          Name               Name
    -------------------------------------------------------------------
       ABCDTYPE             IABCDT         STANDARD    [  0]    ***   
       ANHARMONIC           IANHAR         OFF         [  0]    ***   
       ANH_ALGORIT          IANALG         STANDARD    [  0]    ***   
       ANH_DERIVAT          IANDER         SECOND      [  1]    ***   
       ANH_MODE             ANHMOD         VIBRATION   [  0]    ***   
       ANH_STEPSIZ          ICUBST             50000          x 10-6  
       ANH_SYMMETR          IANHSM         ABELIAN     [  0]    ***   
       AO_LADDERS           IAOLAD         SINGLEPASS  [  1]    ***   
       AV_SCF               IAVSCF         OFF         [  0]    ***   
       BASIS                IBASIS         AUG-PCVQZ   [ 52]    ***   
       BOTHVECTORS          BOTHVC         OFF         [  0]    ***   
       BOX_POTENT           IPIAB          OFF         [  0]    ***   
       BREIT                IBREIT         OFF         [  0]    ***   
       BRUCK_CONV           IBRTOL          10D-  4             ***   
       BRUECKNER            IBRKNR         OFF         [  0]    ***   
       BUFFERSIZE           IBUFFS              4096            ***   
       CACHE_RECS           ICHREC             10               ***   
       CALCLEVEL            ICLLVL         CCSD        [ 10]    ***   
       CCORBOPT             ICCORB         OFF         [  0]  x 0.01  
       CC_CONV              ICCCNV          10D- 14             ***   
       CC_EXPORDER          ICCEOR              5               ***   
       CC_EXTRAPOL          ICCEXT         DIIS        [  1]    ***   
       CC_GUESS             ICCGES         MP2         [  0]    ***   
       CC_MAXCYC            ICCCYC            100              cycles 
       CC_PROGRAM           ICCPRO         VCC         [  0]    ***   
       CHARGE               ICHRGE              0               ***   
       CHOLESKY             ICHOLE         OFF         [  0]    ***   
       CIS_CONV             ICISTL              5               ***   
       COMM_SIZE            IPSIZE            ***               ***   
       CONSTANT             ICONST         OLD         [  1]    ***   
       CONTINUUM            ICONTU         NONE        [  0]    ***   
       CONTRACTION          ICNTYP         GENERAL     [  1]    ***   
       COORDINATES          ICOORD         INTERNAL    [  0]    ***   
       CPHF_CONVER          ICPHFT          10D- 16             ***   
       CPHF_MAXCYC          ICPHFC             64              cycles 
       CUBIC                ICUBIC         OFF         [  0]    ***   
       CURVILINEAR          ICURVY         ON          [  1]    ***   
       DBOC                 IDBOC          ON          [  1]    ***   
       DCT                  IDCT           OFF         [  0]    ***   
       DERIV_LEV            IDRLVL         SECOND      [  2]    ***   
       DEVMEM_SIZE          IDVMEM          50000000           MByte  
       DIAG_MRCC            IEOMST          10D-  0             ***   
       DIFF_TYPE            IDIFTY         RELAXED     [  0]    ***   
       DIRECT               IDIRCT         OFF         [  0]    ***   
       DROPMO               IDRPMO      NONE         
       ECP                  IECP           OFF         [  0]    ***   
       EIGENVECTOR          IVEC                1               ***   
       EL_ANHARM            IELANH         OFF         [  0]    ***   
       EOMFOLLOW            IEOMSR         ENERGY      [  0]    ***   
       EOMIP                IEOMIP         OFF         [  0]    ***   
       EOMLEVEL             HBARFM         SAME        [  0]    ***   
       EOM_MRCC             IMRCCE         NEW         [  1]    ***   
       EOM_NONIT            EOMNON         OFF         [  0]    ***   
       EOM_NSING            IEOMSI          10D-  0             ***   
       EOM_NSTATES          IMRCCD         DAVIDSON    [  0]    ***   
       EOM_NTRIP            IEOMTR          10D-  0             ***   
       EOM_ORDER            IEXORD         ENERGY      [  0]    ***   
       EOM_PROPSTA          IEOMST              0               ***   
       ESTATE_CONV          IEXTOL          10D-  5             ***   
       ESTATE_DIAG          IEXDIG         ITERATIVE   [  0]    ***   
       ESTATE_LOCK          IESLOC         ON          [  1]    ***   
       ESTATE_MAXC          IEXMXC             40               ***   
       ESTATE_PROP          IEXPRP         OFF         [  0]    ***   
       EVAL_HESS            IRECAL              0            # of cyc.
       EXCITATION           IEXCIT              0               ***   
       EXCITE               IEXCIT         NONE        [  0]    ***   
       EXTERN_POT           IEXPOT         OFF         [  0]    ***   
       FCGRADNEW            IFCGNW         OFF         [  0]    ***   
       FC_FIELD             IFINFC              0             x 10-6  
       FD_CALTYPE           IFDCAL         GRADONLY    [  0]    ***   
       FD_PROJECT           IFDPRJ         OFF         [  1]    ***   
       FD_STEPSIZE          IDISFD              0            10-4 bohr
       FD_USEGROUP          IFDGRP         FULL        [  0]    ***   
       FILE_RECSIZ          IFLREC              4096           words  
       FINITE_PERT          IFIPER              0             x 10-6  
       FIXGEOM              IFIXGM         OFF         [  0]    ***   
       FOCK                 IFOCK          AO          [  1]    ***   
       FREQ_ALGORI          IVIALG         STANDARD    [  0]    ***   
       FROZEN_CORE          IFROCO         OFF         [  0]    ***   
       GAMMA_ABCD           IGABCD         STORE       [  0]    ***   
       GAMMA_ABCI           IGABCI         STORE       [  0]    ***   
       GENBAS_1             IGNBS1              0               ***   
       GENBAS_2             IGNBS2              0               ***   
       GENBAS_3             IGNBS3              0               ***   
       GENBAS_4             IGNBS4              0               ***   
       GEO_CONV             ICONTL              5              H/bohr 
       GEO_MAXCYC           IOPTCY             50               ***   
       GEO_MAXSTEP          IMXSTP            300            millibohr
       GEO_METHOD           INR            SINGLE_POINT[  5]    ***   
       GIAO                 IGIAO          OFF         [  1]    ***   
       GIMIC                IGIMIC         OFF         [  0]    ***   
       GRID                 IGRID          OFF         [  0]    ***   
       GRID_ALGO            IGALGO         SERIAL      [  0]    ***   
       GUESS                IGUESS         MOREAD      [  0]    ***   
       HBAR                 IHBAR          OFF         [  0]    ***   
       HESS_TYPE            IHESTP         SCF         [  0]    ***   
       HF2_FILE             IHF2Fl         USE         [  1]    ***   
       HFSTABILITY          ISTABL         OFF         [  0]    ***   
       INCORE               INCORE         OFF         [  0]    ***   
       INPUT_MRCC           IMRCC          ON          [  1]    ***   
       INTEGRALS            INTTYP         VMOL        [  1]    ***   
       JODA_PRINT           IJPRNT              0               ***   
       KEYWORD_OUT          IDMPKW         NO          [  0]    ***   
       LINDEP_TOL           ILINDP              8               ***   
       LINEQ_CONV           IZTACN          10D-  7           cycles  
       LINEQ_EXPOR          ILMAXD              5               ***   
       LINEQ_MAXCY          ILMAXC            100               ***   
       LINEQ_TYPE           ILTYPE         DIIS        [  1]    ***   
       LOCK_ORBOCC          ILOCOC         OFF         [  0]    ***   
       MEMORY_SIZE          IMEMSZ         500000000           words  
       MEM_UNIT             IMEMU          INTEGERWORDS[  0]    ***   
       MRCC                 IMRCCC         OFF         [  0]    ***   
       MULTIPLICTY          IMULTP              1               ***   
       NACOUPLING           IVCOUP         OFF         [  0]    ***   
       NEGEVAL              IDIE           ABORT       [  0]    ***   
       NEWNORM              INEWNO         OFF         [  0]    ***   
       NON-HF               INONHF         OFF         [  0]    ***   
       NTOP_TAMP            ITOPT2             15               ***   
       NUC_MODEL            INUCMO         POINT       [  0]    ***   
       OCCUPATION           IOCCU   ESTIMATED BY SCF 
       OPEN-SHELL           IOPEN          SPIN-ORBITAL[  0]    ***   
       OPTVIB               IOPTVB         OFF         [  0]    ***   
       ORBITALS             IORBTP         STANDARD    [  0]    ***   
       PARALLEL             IPARAL         ON          [  1]    ***   
       PARA_INT             IPINTS         ON          [  1]    ***   
       PARA_PRINT           IPPRIN              0               ***   
       PERT_ORB             IPTORB         STANDARD    [  0]    ***   
       POINTS               IGRDFD              0               ***   
       PRINT                IPRNT               0               ***   
       PROPS                IPROPS         OFF         [  0]    ***   
       PROP_INTEGR          IINTYP         INTERNAL    [  0]    ***   
       PSI                  IPSI           OFF         [  0]    ***   
       QC_ALG               IQCALG         FLM         [  0]    ***   
       QC_LINALG            IQCLIN         TRIDIAG     [  2]    ***   
       QC_MAXCYC            IQCMAX          10D-100           cycles  
       QC_MAXSCFCY          IQCMSC          10D- 15           cycles  
       QC_RTRUST            IQCRTR          10D-  0           x 10-3  
       QC_SKIPSCF           IQCSKI         OFF         [  0]    ***   
       QC_START             IQCSTA          10D-  1             ***   
       QRHFGUESS            IQGUES         OFF         [  0]    ***   
       QUARTIC              IQUART         OFF         [  0]    ***   
       RAMAN_INT            IRAMIN         OFF         [  0]    ***   
       RAMAN_ORB            IRAMRE         UNRELAXED   [  0]    ***   
       RDO                  IRDOFM         ON          [  1]    ***   
       REDUCE_REPR          REDREP         Ir          [  0]    ***   
       REFERENCE            IREFNC         RHF         [  0]    ***   
       RELATIVIST           IRELAT         OFF         [  0]    ***   
       RELAX_DENS           IRDENS         ON          [  1]    ***   
       RESET_FLAGS          IRESET         OFF         [  0]    ***   
       RESTART_CC           ICCRES         OFF         [  0]    ***   
       ROT_EVEC             ROTVEC              0               ***   
       SAVE_INTS            ISVINT         OFF         [  0]    ***   
       SCALE_ON             ISTCRT              0               ***   
       SCF_CONV             ISCFCV          10D- 10             ***   
       SCF_DAMPING          IDAMP               0             x 10-3  
       SCF_EXPORDE          IRPPOR              6               ***   
       SCF_EXPSTAR          IRPPLS              8               ***   
       SCF_EXTRAPO          IRPP           ON          [  1]    ***   
       SCF_MAXCYC           ISCFCY            150              cycles 
       SCF_NOSTOP           ISCFST         OFF         [  0]    ***   
       SCF_PRINT            ISCFPR              0               ***   
       SCF_PROG             ISCFPR         SCF         [  0]    ***   
       SD_FIELD             IFINSD              0             x 10-6  
       SOPERT               IPERSO         OFF         [  0]    ***   
       SPHERICAL            IDFGHI         ON          [  1]    ***   
       SPINORBIT            ISOCAL         OFF         [  0]    ***   
       SPINROTATIO          ISRCON         OFF         [  0]    ***   
       SPIN_FLIP            ISPFLP         OFF         [  0]    ***   
       SPIN_ORBIT           ISPORB         OFF         [  0]    ***   
       SPIN_SCAL            ISCSMP         OFF         [  0]    ***   
       STEEPSCALE           ISTPSC              1000          x 10-3  
       SUBGROUP             ISUBGP         DEFAULT     [  0]    ***   
       SUBGRPAXIS           ISBXYZ         X           [  0]    ***   
       SYMMETRY             ISYM           ON          [  0]    ***   
       SYM_CHECK            ISYMCK         OVERRIDE    [  1]    ***   
       T3_EXTRAPOL          IT3EXT         OFF         [  0]    ***   
       T4_EXTRAPOL          IT4EXP         OFF         [  0]    ***   
       TAMP_SUM             IEVERY              5               ***   
       TESTSUITE            ITESTS         OFF         [  0]    ***   
       THERMOCH             ITHERM         OFF         [  0]    ***   
       TOL_CHOLESK          ITOLCH          10D-  4             ***   
       TRANGRAD             IRESRM         OFF         [  0]    ***   
       TRANS_INV            ITRAIN         IGNORE      [  1]    ***   
       TREAT_PERT           ITREAT         SIMULTANEOUS[  0]    ***   
       TRIP_ALGORI          ITRALG         NORMAL      [  0]    ***   
       UIJ_THRESHO          IUIJTH              1               ***   
       UNITS                IUNITS         ANGSTROM    [  0]    ***   
       UNOS                 IUNOS          OFF         [  0]    ***   
       UPDATE_HESS          IHUPDT         ON          [  1]    ***   
       VIBPHASE             ISETPH         STANDARD    [  0]    ***   
       VIBRATION            IVIB           ANALYTIC    [  1]    ***   
       VIB_ALGORIT          IGEALG         STANDARD    [  0]    ***   
       VNATORB              IVNORB         OFF         [  0]    ***   
       VTRAN                IVTRAN         FULL/PARTIAL[  0]    ***   
       XFIELD               IXEFLD              0             x 10-6  
       XFORM_TOL            IXFTOL          10D- 11             ***   
       YFIELD               IYEFLD              0             x 10-6  
       ZFIELD               IZEFLD            200             x 10-6  
       ZSCALE_EXP           IZEXPS         OFF         [  0]    ***   
    -------------------------------------------------------------------
   2 entries found in Z-matrix 
   Job Title : Carbon Monoxide DBOC calculation                                                
   There are  1 unique internal coordinates.
   Of these,  0 will be optimized.
   User supplied Z-matrix: 
--------------------------------------------------------------------------------
       SYMBOL    BOND      LENGTH    ANGLE     ANGLE     DIHED     ANGLE
                  TO      (ANGST)    WRT      (DEG)      WRT      (DEG)
--------------------------------------------------------------------------------
        C    
        O          1         r    
                  *Initial values for internal coordinates* 
                      Name             Value
                        r               1.3344827586
--------------------------------------------------------------------------------
  read isotopes from ZMAT file 
   Rotational constants (in cm-1): 
          1.3147592311             1.3147592311
   Rotational constants (in MHz): 
      39415.4956784414         39415.4956784414
********************************************************************************
   The full molecular point group is CXv .
   The largest Abelian subgroup of the full molecular point group is C2v .
   The computational point group is C2v .
********************************************************************************
--------------------------------------------------------------------------------
   Analysis of internal coordinates specified by Z-matrix 
--------------------------------------------------------------------------------
   *The nuclear repulsion energy is   19.033967007751937 a.u.
   *There is   1 degree of freedom within the tot. symm. molecular subspace.
   *Z-matrix requests optimization of   0 coordinates.
   *The optimization is constrained.
   *The following   1 parameters can have non-zero 
    derivatives within the totally symmetric subspace:
             r    [ 1]
   *The following   0 parameters are to be optimized:

   *The following coordinates must be varied in an  unconstrained optimization.
             r    [ 1]
--------------------------------------------------------------------------------


 ----------------------------------------------------------------
         Coordinates used in calculation (QCOMP) 
 ----------------------------------------------------------------
 Z-matrix   Atomic            Coordinates (in bohr)
  Symbol    Number           X              Y              Z
 ----------------------------------------------------------------
     C         6        -0.00000000     0.00000000     1.51305624
     O         8         0.00000000     0.00000000    -1.00875122
 ----------------------------------------------------------------
 
   Interatomic distance matrix (Angstroms) 
 
                 C             O    
                [ 1]        [ 2]
  C    [ 1]     0.00000
  O    [ 2]     1.33448     0.00000
 rotcon2
   Rotational constants (in cm-1): 
          1.3147592311             0.0000000000
   Rotational constants (in MHz): 
      39415.4956784414             0.0000000000
  ECPDATA file not present.   Using default ECPDATA. 
  @GTFLGS-I, Hessian will be transformed to curvilinear coordinates.
  There are  218 basis functions.
 @CHECKOUT-I, Total execution time (CPU/WALL):        0.13/       0.23 seconds.
--executable xjoda finished with status     0 in        0.26 seconds (walltime).
 --invoking executable--
/nfs/workspaces/public/cfour_mpi/bin/xvmol
 SERIAL VERSION OF MOLECULE STARTED
********************************************************************************
                    INPUT FROM MOL FILE
********************************************************************************
INTGRL        1    0    1    0    0    0    0    0    0                         
         *** CFOUR Program System (Release V0.1) ***                            
Carbon Monoxide DBOC calculation                                                
    2    2 X  Y       0.10E-08              0    0                              
   9999.00      3.00                                                            
          6.00000000    1    5    1    1    1    1    1                         
C #1  -0.000000000000000   0.000000000000000   1.513056241256928                
   16    9                                                                      
   33980.0000000000       9.100000000000000E-005 -1.900000000000000E-005        
  0.000000000000000E+000  0.000000000000000E+000  0.000000000000000E+000        
  0.000000000000000E+000  0.000000000000000E+000  0.000000000000000E+000        
  0.000000000000000E+000                                                        
   5089.00000000000       7.040000000000000E-004 -1.510000000000000E-004        
  0.000000000000000E+000  0.000000000000000E+000  0.000000000000000E+000        
  0.000000000000000E+000  0.000000000000000E+000  0.000000000000000E+000        
  0.000000000000000E+000                                                        
   1157.00000000000       3.693000000000000E-003 -7.850000000000000E-004        
  0.000000000000000E+000  0.000000000000000E+000  0.000000000000000E+000        
  0.000000000000000E+000  0.000000000000000E+000  0.000000000000000E+000        
  0.000000000000000E+000                                                        
   326.600000000000       1.536000000000000E-002 -3.324000000000000E-003        
  0.000000000000000E+000  0.000000000000000E+000  0.000000000000000E+000        
  0.000000000000000E+000  0.000000000000000E+000  0.000000000000000E+000        
  0.000000000000000E+000                                                        
   106.100000000000       5.292900000000000E-002 -1.151200000000000E-002        
  0.000000000000000E+000  0.000000000000000E+000  0.000000000000000E+000        
  0.000000000000000E+000  0.000000000000000E+000  0.000000000000000E+000        
  0.000000000000000E+000                                                        
   38.1100000000000       0.147043000000000      -3.416000000000000E-002        
  0.000000000000000E+000  0.000000000000000E+000  0.000000000000000E+000        
  0.000000000000000E+000  0.000000000000000E+000  0.000000000000000E+000        
  0.000000000000000E+000                                                        
   14.7500000000000       0.305631000000000      -7.717300000000001E-002        
  0.000000000000000E+000  0.000000000000000E+000  0.000000000000000E+000        
  0.000000000000000E+000  0.000000000000000E+000  0.000000000000000E+000        
  0.000000000000000E+000                                                        
   6.03500000000000       0.399345000000000      -0.141493000000000             
  0.000000000000000E+000  0.000000000000000E+000  0.000000000000000E+000        
  0.000000000000000E+000  0.000000000000000E+000  0.000000000000000E+000        
  0.000000000000000E+000                                                        
   2.53000000000000       0.217051000000000      -0.118019000000000             
  0.000000000000000E+000  0.000000000000000E+000  0.000000000000000E+000        
  0.000000000000000E+000  0.000000000000000E+000  0.000000000000000E+000        
  0.000000000000000E+000                                                        
  0.735500000000000       1.589400000000000E-002  0.273806000000000             
   1.00000000000000       0.000000000000000E+000  0.000000000000000E+000        
  0.000000000000000E+000  0.000000000000000E+000  0.000000000000000E+000        
  0.000000000000000E+000                                                        
  0.290500000000000      -3.084000000000000E-003  0.586510000000000             
  0.000000000000000E+000   1.00000000000000       0.000000000000000E+000        
  0.000000000000000E+000  0.000000000000000E+000  0.000000000000000E+000        
  0.000000000000000E+000                                                        
  0.111100000000000       9.779999999999999E-004  0.285430000000000             
  0.000000000000000E+000  0.000000000000000E+000   1.00000000000000             
  0.000000000000000E+000  0.000000000000000E+000  0.000000000000000E+000        
  0.000000000000000E+000                                                        
   7.21600000000000       0.000000000000000E+000  0.000000000000000E+000        
  0.000000000000000E+000  0.000000000000000E+000  0.000000000000000E+000        
   1.00000000000000       0.000000000000000E+000  0.000000000000000E+000        
  0.000000000000000E+000                                                        
   19.5700000000000       0.000000000000000E+000  0.000000000000000E+000        
  0.000000000000000E+000  0.000000000000000E+000  0.000000000000000E+000        
  0.000000000000000E+000   1.00000000000000       0.000000000000000E+000        
  0.000000000000000E+000                                                        
   53.0730000000000       0.000000000000000E+000  0.000000000000000E+000        
  0.000000000000000E+000  0.000000000000000E+000  0.000000000000000E+000        
  0.000000000000000E+000  0.000000000000000E+000   1.00000000000000             
  0.000000000000000E+000                                                        
  4.145000000000000E-002  0.000000000000000E+000  0.000000000000000E+000        
  0.000000000000000E+000  0.000000000000000E+000  0.000000000000000E+000        
  0.000000000000000E+000  0.000000000000000E+000  0.000000000000000E+000        
   1.00000000000000                                                             
   10    8                                                                      
   34.5100000000000       5.378000000000000E-003  0.000000000000000E+000        
  0.000000000000000E+000  0.000000000000000E+000  0.000000000000000E+000        
  0.000000000000000E+000  0.000000000000000E+000  0.000000000000000E+000        
   7.91500000000000       3.613200000000000E-002  0.000000000000000E+000        
  0.000000000000000E+000  0.000000000000000E+000  0.000000000000000E+000        
  0.000000000000000E+000  0.000000000000000E+000  0.000000000000000E+000        
   2.36800000000000       0.142493000000000       0.000000000000000E+000        
  0.000000000000000E+000  0.000000000000000E+000  0.000000000000000E+000        
  0.000000000000000E+000  0.000000000000000E+000  0.000000000000000E+000        
  0.813200000000000       0.342150000000000        1.00000000000000             
  0.000000000000000E+000  0.000000000000000E+000  0.000000000000000E+000        
  0.000000000000000E+000  0.000000000000000E+000  0.000000000000000E+000        
  0.289000000000000       0.463864000000000       0.000000000000000E+000        
   1.00000000000000       0.000000000000000E+000  0.000000000000000E+000        
  0.000000000000000E+000  0.000000000000000E+000  0.000000000000000E+000        
  0.100700000000000       0.250028000000000       0.000000000000000E+000        
  0.000000000000000E+000   1.00000000000000       0.000000000000000E+000        
  0.000000000000000E+000  0.000000000000000E+000  0.000000000000000E+000        
   8.18200000000000       0.000000000000000E+000  0.000000000000000E+000        
  0.000000000000000E+000  0.000000000000000E+000   1.00000000000000             
  0.000000000000000E+000  0.000000000000000E+000  0.000000000000000E+000        
   24.1860000000000       0.000000000000000E+000  0.000000000000000E+000        
  0.000000000000000E+000  0.000000000000000E+000  0.000000000000000E+000        
   1.00000000000000       0.000000000000000E+000  0.000000000000000E+000        
   71.4940000000000       0.000000000000000E+000  0.000000000000000E+000        
  0.000000000000000E+000  0.000000000000000E+000  0.000000000000000E+000        
  0.000000000000000E+000   1.00000000000000       0.000000000000000E+000        
  3.218000000000000E-002  0.000000000000000E+000  0.000000000000000E+000        
  0.000000000000000E+000  0.000000000000000E+000  0.000000000000000E+000        
  0.000000000000000E+000  0.000000000000000E+000   1.00000000000000             
    6    6                                                                      
   1.84800000000000        1.00000000000000       0.000000000000000E+000        
  0.000000000000000E+000  0.000000000000000E+000  0.000000000000000E+000        
  0.000000000000000E+000                                                        
  0.649000000000000       0.000000000000000E+000   1.00000000000000             
  0.000000000000000E+000  0.000000000000000E+000  0.000000000000000E+000        
  0.000000000000000E+000                                                        
  0.228000000000000       0.000000000000000E+000  0.000000000000000E+000        
   1.00000000000000       0.000000000000000E+000  0.000000000000000E+000        
  0.000000000000000E+000                                                        
   8.65600000000000       0.000000000000000E+000  0.000000000000000E+000        
  0.000000000000000E+000   1.00000000000000       0.000000000000000E+000        
  0.000000000000000E+000                                                        
   33.2130000000000       0.000000000000000E+000  0.000000000000000E+000        
  0.000000000000000E+000  0.000000000000000E+000   1.00000000000000             
  0.000000000000000E+000                                                        
  7.660000000000000E-002  0.000000000000000E+000  0.000000000000000E+000        
  0.000000000000000E+000  0.000000000000000E+000  0.000000000000000E+000        
   1.00000000000000                                                             
    4    4                                                                      
   1.41900000000000        1.00000000000000       0.000000000000000E+000        
  0.000000000000000E+000  0.000000000000000E+000                                
  0.485000000000000       0.000000000000000E+000   1.00000000000000             
  0.000000000000000E+000  0.000000000000000E+000                                
   24.6940000000000       0.000000000000000E+000  0.000000000000000E+000        
   1.00000000000000       0.000000000000000E+000                                
  0.187000000000000       0.000000000000000E+000  0.000000000000000E+000        
  0.000000000000000E+000   1.00000000000000                                     
    2    2                                                                      
   1.01100000000000        1.00000000000000       0.000000000000000E+000        
  0.424000000000000       0.000000000000000E+000   1.00000000000000             
          8.00000000    1    5    1    1    1    1    1                         
O #2   0.000000000000000   0.000000000000000  -1.008751219082322                
   16    9                                                                      
   61420.0000000000       9.000000000000001E-005 -2.000000000000000E-005        
  0.000000000000000E+000  0.000000000000000E+000  0.000000000000000E+000        
  0.000000000000000E+000  0.000000000000000E+000  0.000000000000000E+000        
  0.000000000000000E+000                                                        
   9199.00000000000       6.980000000000001E-004 -1.590000000000000E-004        
  0.000000000000000E+000  0.000000000000000E+000  0.000000000000000E+000        
  0.000000000000000E+000  0.000000000000000E+000  0.000000000000000E+000        
  0.000000000000000E+000                                                        
   2091.00000000000       3.664000000000000E-003 -8.290000000000000E-004        
  0.000000000000000E+000  0.000000000000000E+000  0.000000000000000E+000        
  0.000000000000000E+000  0.000000000000000E+000  0.000000000000000E+000        
  0.000000000000000E+000                                                        
   590.900000000000       1.521800000000000E-002 -3.508000000000000E-003        
  0.000000000000000E+000  0.000000000000000E+000  0.000000000000000E+000        
  0.000000000000000E+000  0.000000000000000E+000  0.000000000000000E+000        
  0.000000000000000E+000                                                        
   192.300000000000       5.242300000000000E-002 -1.215600000000000E-002        
  0.000000000000000E+000  0.000000000000000E+000  0.000000000000000E+000        
  0.000000000000000E+000  0.000000000000000E+000  0.000000000000000E+000        
  0.000000000000000E+000                                                        
   69.3200000000000       0.145921000000000      -3.626100000000000E-002        
  0.000000000000000E+000  0.000000000000000E+000  0.000000000000000E+000        
  0.000000000000000E+000  0.000000000000000E+000  0.000000000000000E+000        
  0.000000000000000E+000                                                        
   26.9700000000000       0.305258000000000      -8.299200000000000E-002        
  0.000000000000000E+000  0.000000000000000E+000  0.000000000000000E+000        
  0.000000000000000E+000  0.000000000000000E+000  0.000000000000000E+000        
  0.000000000000000E+000                                                        
   11.1000000000000       0.398508000000000      -0.152090000000000             
  0.000000000000000E+000  0.000000000000000E+000  0.000000000000000E+000        
  0.000000000000000E+000  0.000000000000000E+000  0.000000000000000E+000        
  0.000000000000000E+000                                                        
   4.68200000000000       0.216980000000000      -0.115331000000000             
  0.000000000000000E+000  0.000000000000000E+000  0.000000000000000E+000        
  0.000000000000000E+000  0.000000000000000E+000  0.000000000000000E+000        
  0.000000000000000E+000                                                        
   1.42800000000000       1.759400000000000E-002  0.288979000000000             
   1.00000000000000       0.000000000000000E+000  0.000000000000000E+000        
  0.000000000000000E+000  0.000000000000000E+000  0.000000000000000E+000        
  0.000000000000000E+000                                                        
  0.554700000000000      -2.502000000000000E-003  0.586128000000000             
  0.000000000000000E+000   1.00000000000000       0.000000000000000E+000        
  0.000000000000000E+000  0.000000000000000E+000  0.000000000000000E+000        
  0.000000000000000E+000                                                        
  0.206700000000000       9.540000000000000E-004  0.277624000000000             
  0.000000000000000E+000  0.000000000000000E+000   1.00000000000000             
  0.000000000000000E+000  0.000000000000000E+000  0.000000000000000E+000        
  0.000000000000000E+000                                                        
   12.9740000000000       0.000000000000000E+000  0.000000000000000E+000        
  0.000000000000000E+000  0.000000000000000E+000  0.000000000000000E+000        
   1.00000000000000       0.000000000000000E+000  0.000000000000000E+000        
  0.000000000000000E+000                                                        
   34.9000000000000       0.000000000000000E+000  0.000000000000000E+000        
  0.000000000000000E+000  0.000000000000000E+000  0.000000000000000E+000        
  0.000000000000000E+000   1.00000000000000       0.000000000000000E+000        
  0.000000000000000E+000                                                        
   93.8810000000000       0.000000000000000E+000  0.000000000000000E+000        
  0.000000000000000E+000  0.000000000000000E+000  0.000000000000000E+000        
  0.000000000000000E+000  0.000000000000000E+000   1.00000000000000             
  0.000000000000000E+000                                                        
  6.959000000000000E-002  0.000000000000000E+000  0.000000000000000E+000        
  0.000000000000000E+000  0.000000000000000E+000  0.000000000000000E+000        
  0.000000000000000E+000  0.000000000000000E+000  0.000000000000000E+000        
   1.00000000000000                                                             
   10    8                                                                      
   63.4200000000000       6.044000000000000E-003  0.000000000000000E+000        
  0.000000000000000E+000  0.000000000000000E+000  0.000000000000000E+000        
  0.000000000000000E+000  0.000000000000000E+000  0.000000000000000E+000        
   14.6600000000000       4.179900000000000E-002  0.000000000000000E+000        
  0.000000000000000E+000  0.000000000000000E+000  0.000000000000000E+000        
  0.000000000000000E+000  0.000000000000000E+000  0.000000000000000E+000        
   4.45900000000000       0.161143000000000       0.000000000000000E+000        
  0.000000000000000E+000  0.000000000000000E+000  0.000000000000000E+000        
  0.000000000000000E+000  0.000000000000000E+000  0.000000000000000E+000        
   1.53100000000000       0.356731000000000        1.00000000000000             
  0.000000000000000E+000  0.000000000000000E+000  0.000000000000000E+000        
  0.000000000000000E+000  0.000000000000000E+000  0.000000000000000E+000        
  0.530200000000000       0.448309000000000       0.000000000000000E+000        
   1.00000000000000       0.000000000000000E+000  0.000000000000000E+000        
  0.000000000000000E+000  0.000000000000000E+000  0.000000000000000E+000        
  0.175000000000000       0.244940000000000       0.000000000000000E+000        
  0.000000000000000E+000   1.00000000000000       0.000000000000000E+000        
  0.000000000000000E+000  0.000000000000000E+000  0.000000000000000E+000        
   14.4750000000000       0.000000000000000E+000  0.000000000000000E+000        
  0.000000000000000E+000  0.000000000000000E+000   1.00000000000000             
  0.000000000000000E+000  0.000000000000000E+000  0.000000000000000E+000        
   42.7300000000000       0.000000000000000E+000  0.000000000000000E+000        
  0.000000000000000E+000  0.000000000000000E+000  0.000000000000000E+000        
   1.00000000000000       0.000000000000000E+000  0.000000000000000E+000        
   126.140000000000       0.000000000000000E+000  0.000000000000000E+000        
  0.000000000000000E+000  0.000000000000000E+000  0.000000000000000E+000        
  0.000000000000000E+000   1.00000000000000       0.000000000000000E+000        
  5.348000000000000E-002  0.000000000000000E+000  0.000000000000000E+000        
  0.000000000000000E+000  0.000000000000000E+000  0.000000000000000E+000        
  0.000000000000000E+000  0.000000000000000E+000   1.00000000000000             
    6    6                                                                      
   3.77500000000000        1.00000000000000       0.000000000000000E+000        
  0.000000000000000E+000  0.000000000000000E+000  0.000000000000000E+000        
  0.000000000000000E+000                                                        
   1.30000000000000       0.000000000000000E+000   1.00000000000000             
  0.000000000000000E+000  0.000000000000000E+000  0.000000000000000E+000        
  0.000000000000000E+000                                                        
  0.444000000000000       0.000000000000000E+000  0.000000000000000E+000        
   1.00000000000000       0.000000000000000E+000  0.000000000000000E+000        
  0.000000000000000E+000                                                        
   14.9270000000000       0.000000000000000E+000  0.000000000000000E+000        
  0.000000000000000E+000   1.00000000000000       0.000000000000000E+000        
  0.000000000000000E+000                                                        
   57.5440000000000       0.000000000000000E+000  0.000000000000000E+000        
  0.000000000000000E+000  0.000000000000000E+000   1.00000000000000             
  0.000000000000000E+000                                                        
  0.154000000000000       0.000000000000000E+000  0.000000000000000E+000        
  0.000000000000000E+000  0.000000000000000E+000  0.000000000000000E+000        
   1.00000000000000                                                             
    4    4                                                                      
   2.66600000000000        1.00000000000000       0.000000000000000E+000        
  0.000000000000000E+000  0.000000000000000E+000                                
  0.859000000000000       0.000000000000000E+000   1.00000000000000             
  0.000000000000000E+000  0.000000000000000E+000                                
   26.4830000000000       0.000000000000000E+000  0.000000000000000E+000        
   1.00000000000000       0.000000000000000E+000                                
  0.324000000000000       0.000000000000000E+000  0.000000000000000E+000        
  0.000000000000000E+000   1.00000000000000                                     
    2    2                                                                      
   1.84600000000000        1.00000000000000       0.000000000000000E+000        
  0.714000000000000       0.000000000000000E+000   1.00000000000000             
FINISH                                                                          
 
********************************************************************************
 ONE- AND TWO-ELECTRON INTEGRALS OVER SYMMETRY-ADAPTED AOS ARE CALCULATED.

  SPHERICAL HARMONICS ARE USED.
  
  INTEGRALS LESS THAN  0.10E-13 ARE NEGLECTED.

  NUCLEAR REPULSION ENERGY :   19.0339670078 A.U.
  @MOLECU-I, ONE ELECTRON INTEGRALS (CPU/WALL):        0.06/       0.08 SECONDS.
  @TWOEL-I,    4515274 INTEGRALS OF SYMMETRY TYPE  I I I I
  @TWOEL-I,   19440900 INTEGRALS OF SYMMETRY TYPE  I J I J
  @TWOEL-I,   10240125 INTEGRALS OF SYMMETRY TYPE  I I J J
  @TWOEL-I,   14394662 INTEGRALS OF SYMMETRY TYPE  I J K L
  @TWOEL-I, TOTAL NUMBER OF 2-E INTEGRALS   48590961.
  @MOLECU-I, TWO ELECTRON INTEGRALS (CPU/WALL):      241.65/      32.26 SECONDS.
 @CHECKOUT-I, Total execution time (CPU/WALL):      241.73/      32.36 seconds.

Running with 14 threads/proc

--executable xvmol finished with status     0 in       32.39 seconds (walltime).
 --invoking executable--
/nfs/workspaces/public/cfour_mpi/bin/xvmol2ja
 @GETMEM-I,  Allocated    3814 MB of main memory.
 @CHECKOUT-I, Total execution time (CPU/WALL):        0.23/       0.06 seconds.
--executable xvmol2ja finished with status     0 in        0.10 seconds (walltime).
 --invoking executable--
/nfs/workspaces/public/cfour_mpi/bin/xvprop
 @GETMEM-I,  Allocated    3814 MB of main memory.
   Property integrals will be calculated.
    --------------------------------------------------------------
                                   Property evaluated at 
    Property type                X             Y             Z
    --------------------------------------------------------------
    Dipole moment               ----          ----          ----  
    Quadrupole moment           ----          ----          ----  
    Octopole moment             ----          ----          ----  
    Relativisitic corr.         ----          ----          ----  
    Second moment            0.0000000     0.0000000     0.0000000
    Electron density         0.0000000     0.0000000     1.5130562
    Electron density         0.0000000     0.0000000    -1.0087512
    Field gradient           0.0000000     0.0000000     1.5130562
    Field gradient           0.0000000     0.0000000    -1.0087512
    Potential                0.0000000     0.0000000     1.5130562
    Potential                0.0000000     0.0000000    -1.0087512
    --------------------------------------------------------------
 @CHECKOUT-I, Total execution time (CPU/WALL):        1.68/       1.71 seconds.
--executable xvprop finished with status     0 in        1.74 seconds (walltime).
 --invoking executable--
/nfs/workspaces/public/cfour_mpi/bin/xvscf
  There are  218 functions in the AO basis.

  There are 4 irreducible representations.

       Irrep        # of functions
         1                 86
         2                 52
         3                 52
         4                 28


  Parameters for SCF calculation: 
        SCF reference function:  RHF  
  Maximum number of iterations:  150
     Full symmetry point group: CXv 
     Computational point group: C2v 
        Initial density matrix: MOREAD                 
     SCF convergence tolerance: 10**(-10)
  DIIS convergence acceleration:  ON
          Latest start for DIIS:   8
                     DIIS order:   6

  Memory information:    2523578 words required.
  Fock matrices are constructed from AO integral file.
 @GETMEM-I,  Allocated      19 MB of main memory.
  Initialization and symmetry analysis required      0.001 seconds.

  Adding electric field perturbation to one-electron Hamiltonian.
  Field direction     : Z
  Field strength      :  0.0002000 a.u.

  @INITGES-I, Occupancies from core Hamiltonian:

          Alpha population by irrep:   5    1    1    0
           Beta population by irrep:   5    1    1    0


 total no. of electrons in initial guess :  0.000000000000000E+000
  --------------------------------------------------------------------
  Iteration         Total Energy            Largest Density Difference
  --------------------------------------------------------------------
       0            19.033765342213474              0.0000000000D+00
   current occupation vector 
     5  1  1  0
     5  1  1  0
       1           -92.945573109960250              0.1780529995D+02
   current occupation vector 
     5  1  1  0
     5  1  1  0
       2           -98.357265431626715              0.1780190476D+02
   current occupation vector 
     5  1  1  0
     5  1  1  0
       3          -103.468721060637833              0.6979173188D+01
   current occupation vector 
     5  1  1  0
     5  1  1  0
       4           -99.103752470124334              0.6952885282D+01
   current occupation vector 
     5  1  1  0
     5  1  1  0
       5          -101.678005842300010              0.6231977985D+01
   current occupation vector 
     5  1  1  0
     5  1  1  0
       6           -97.754523743587583              0.6210684874D+01
   current occupation vector 
     5  1  1  0
     5  1  1  0
       7          -101.683503514972003              0.6373059137D+01
   current occupation vector 
     5  1  1  0
     5  1  1  0
       8           -97.663228847559751              0.6372240103D+01
   current occupation vector 
     5  1  1  0
     5  1  1  0
       9          -108.769114079554342              0.4812064741D+01
   current occupation vector 
     5  1  1  0
     5  1  1  0
      10          -110.827791201991786              0.1106925721D+01
   current occupation vector 
     5  1  1  0
     5  1  1  0
      11          -112.528484726891250              0.1051376726D+01
   current occupation vector 
     5  1  1  0
     5  1  1  0
      12          -112.698462092441147              0.4256418375D+00
   current occupation vector 
     5  1  1  0
     5  1  1  0
      13          -112.700258854068906              0.5571443693D-01
   current occupation vector 
     5  1  1  0
     5  1  1  0
      14          -112.700522290784377              0.1995100813D-01
   current occupation vector 
     5  1  1  0
     5  1  1  0
      15          -112.700551398620476              0.8455500313D-02
   current occupation vector 
     5  1  1  0
     5  1  1  0
      16          -112.700551926365520              0.9925449144D-03
   current occupation vector 
     5  1  1  0
     5  1  1  0
      17          -112.700551976192557              0.4541749002D-03
   current occupation vector 
     5  1  1  0
     5  1  1  0
      18          -112.700551981092971              0.1567550139D-03
   current occupation vector 
     5  1  1  0
     5  1  1  0
      19          -112.700551981213025              0.2368855649D-04
   current occupation vector 
     5  1  1  0
     5  1  1  0
      20          -112.700551981213849              0.1633679836D-05
   current occupation vector 
     5  1  1  0
     5  1  1  0
      21          -112.700551981214559              0.7902702188D-06
   current occupation vector 
     5  1  1  0
     5  1  1  0
      22          -112.700551981213820              0.1550726594D-06
   current occupation vector 
     5  1  1  0
     5  1  1  0
      23          -112.700551981214105              0.3468416199D-07
   current occupation vector 
     5  1  1  0
     5  1  1  0
      24          -112.700551981214531              0.2760156992D-08
   current occupation vector 
     5  1  1  0
     5  1  1  0
      25          -112.700551981214218              0.3795199710D-09
   current occupation vector 
     5  1  1  0
     5  1  1  0
      26          -112.700551981214304              0.1823663442D-09
   current occupation vector 
     5  1  1  0
     5  1  1  0
      27          -112.700551981213820              0.2302753543D-09
   current occupation vector 
     5  1  1  0
     5  1  1  0
      28          -112.700551981214957              0.1072050088D-09
   current occupation vector 
     5  1  1  0
     5  1  1  0

  SCF has converged.

 Density matrix saved to file den.dat
 total electron number:   14.0000000000001     
     E(SCF)=      -112.700551981214048              0.9951794944D-10

  Eigenvector printing suppressed.

 @PUTMOS-I, Writing converged MOs to NEWMOS. 
 @PUTMOS-I, Symmetry   1 Full Blocks 21 Partial Blocksize   2
 @PUTMOS-I, Symmetry   2 Full Blocks 13 Partial Blocksize   0
 @PUTMOS-I, Symmetry   3 Full Blocks 13 Partial Blocksize   0
 @PUTMOS-I, Symmetry   4 Full Blocks  7 Partial Blocksize   0
 @PUTFOCK-I, Writing converged Fock matrix to NEWFOCK. 
 @PUTFOCK-I, Symmetry   1 Full Blocks 21 Partial Blocksize   2
 @PUTFOCK-I, Symmetry   2 Full Blocks 13 Partial Blocksize   0
 @PUTFOCK-I, Symmetry   3 Full Blocks 13 Partial Blocksize   0
 @PUTFOCK-I, Symmetry   4 Full Blocks  7 Partial Blocksize   0


 
  ORBITAL EIGENVALUES (ALPHA)  (1H = 27.2113834 eV)

       MO #        E(hartree)               E(eV)           FULLSYM    COMPSYM
       ----   --------------------   --------------------   -------   ---------
    1     1         -20.6642362676        -562.3024557469     SG+        A1 (1)
    2     2         -11.4459397889        -311.4598559690     SG+        A1 (1)
    3     3          -1.3934109908         -37.9166407033     SG+        A1 (1)
    4     4          -0.7929990080         -21.5786000425     SG+        A1 (1)
    5     5          -0.5651066607         -15.3773340055     SG+        A1 (1)
    6    87          -0.5634525777         -15.3323241188      PI        B1 (2)
    7   139          -0.5634525777         -15.3323241188      PI        B2 (3)
  +++++++++++++++++++++++++++++++++++++++++++++++++++++++++++++++++++++++++++++
    8   140           0.0450162328           1.2249539706      PI        B2 (3)
    9    88           0.0450162328           1.2249539706      PI        B1 (2)
   10     6           0.0630662928           1.7161210743     SG+        A1 (1)
   11     7           0.0710103483           1.9322898133     SG+        A1 (1)
   12   141           0.0969934378           2.6393256221      PI        B2 (3)
   13    89           0.0969934378           2.6393256221      PI        B1 (2)
   14     8           0.1564437022           4.2570495624     SG+        A1 (1)
   15    90           0.1698609192           4.6221505983      PI        B1 (2)
   16   142           0.1698609192           4.6221505983      PI        B2 (3)
   17   191           0.2265861266           6.1657219649      DE        A2 (4)
   18     9           0.2265861266           6.1657219649      DE        A1 (1)
   19    10           0.2272849773           6.1847386576     SG+        A1 (1)
   20    11           0.2996373818           8.1535476764     SG+        A1 (1)
   21    91           0.3025645693           8.2332004989      PI        B1 (2)
   22   143           0.3025645693           8.2332004989      PI        B2 (3)
   23    12           0.3786046338          10.3023558478     SG+        A1 (1)
   24    92           0.3972392127          10.8094285194      PI        B1 (2)
   25   144           0.3972392127          10.8094285194      PI        B2 (3)
   26    13           0.5092305458          13.8568676197     SG+        A1 (1)
   27    14           0.5370235940          14.6131549107     SG+        A1 (1)
   28   192           0.5446275424          14.8200688661      DE        A2 (4)
   29    15           0.5446275424          14.8200688661      DE        A1 (1)
   30    93           0.6253164956          17.0157269092      PI        B1 (2)
   31   145           0.6253164956          17.0157269092      PI        B2 (3)
   32    94           0.7430759369          20.2201242140      PH        B1 (2)
   33   146           0.7430759369          20.2201242140      PH        B2 (3)
   34    16           0.7518401275          20.4586099660     SG+        A1 (1)
   35   193           0.7572392230          20.6055268228      DE        A2 (4)
   36    17           0.7572392230          20.6055268228      DE        A1 (1)
   37    95           0.7999257182          21.7670854083      PI        B1 (2)
   38   147           0.7999257182          21.7670854083      PI        B2 (3)
   39    18           0.8261226334          22.4799397120     SG+        A1 (1)
   40    19           0.8683396988          23.6287244651     SG+        A1 (1)
   41   194           0.8789062076          23.9162537880      DE        A2 (4)
   42    20           0.8789062076          23.9162537880      DE        A1 (1)
   43    96           0.8960577317          24.3829704849      PI        B1 (2)
   44   148           0.8960577317          24.3829704849      PI        B2 (3)
   45    97           1.0400823249          28.3020789093      PI        B1 (2)
   46   149           1.0400823249          28.3020789093      PI        B2 (3)
   47    21           1.1248915732          30.6098558828     SG+        A1 (1)
   48    22           1.4147426103          38.4971035823     SG+        A1 (1)
   49    98           1.4328811661          38.9906787778      PH        B1 (2)
   50   150           1.4328811661          38.9906787778      PH        B2 (3)
   51    23           1.5522170286          42.2379726855      DE        A1 (1)
   52   195           1.5522170286          42.2379726855      DE        A2 (4)
   53    99           1.5677319300          42.6601546167      PI        B1 (2)
   54   151           1.5677319300          42.6601546167      PI        B2 (3)
   55    24           1.6469086419          44.8146624807     SG+        A1 (1)
   56   100           1.6697504229          45.4362189410      PI        B1 (2)
   57   152           1.6697504229          45.4362189411      PI        B2 (3)
   58    25           1.7320931083          47.1326496537      DE        A1 (1)
   59   196           1.7320931083          47.1326496538      DE        A2 (4)
   60    26           1.8529490764          50.4213077397     SG+        A1 (1)
   61    27           2.0318116963          55.2884070638     SG+        A1 (1)
   62   101           2.0643980907          56.1751279360      PI        B1 (2)
   63   153           2.0643980907          56.1751279360      PI        B2 (3)
   64   197           2.0902875384          56.8796156240      PI        A2 (4)
   65    28           2.0902875384          56.8796156240      PI        A1 (1)
   66   198           2.1598874056          58.7735242952      DE        A2 (4)
   67    29           2.1598874056          58.7735242952      DE        A1 (1)
   68   102           2.2328579451          60.7591536228      PH        B1 (2)
   69   154           2.2328579451          60.7591536228      PH        B2 (3)
   70   155           2.2800224799          62.0425658623      PI        B2 (3)
   71   103           2.2800224799          62.0425658623      PI        B1 (2)
   72    30           2.2887273205          62.2794366153     SG+        A1 (1)
   73   104           2.2901895249          62.3192252199      PH        B1 (2)
   74   156           2.2901895249          62.3192252199      PH        B2 (3)
   75   199           2.3288346258          63.3708118775      DE        A2 (4)
   76    31           2.3288346258          63.3708118775      DE        A1 (1)
   77    32           2.4980571300          67.9755903184     SG+        A1 (1)
   78   105           2.5396245753          69.1066980097      PI        B1 (2)
   79   157           2.5396245753          69.1066980097      PI        B2 (3)
   80    33           2.6704244743          72.6659442111     SG+        A1 (1)
   81   158           2.6823969508          72.9917318580      PI        B2 (3)
   82   106           2.6823969508          72.9917318580      PI        B1 (2)
   83   200           2.8340128897          77.1174113026      DE        A2 (4)
   84    34           2.8340128897          77.1174113026      DE        A1 (1)
   85    35           3.3547423705          91.2871808529     SG+        A1 (1)
   86   107           3.6273294317          98.7046518840      PI        B1 (2)
   87   159           3.6273294317          98.7046518840      PI        B2 (3)
   88   201           3.7021967553         100.7418953313      PI        A2 (4)
   89    36           3.7021967553         100.7418953313      PI        A1 (1)
   90    37           3.8984152944         106.0812732279     SG+        A1 (1)
   91   160           4.0606734880         110.4965431429      PH        B2 (3)
   92   108           4.0606734880         110.4965431429      PH        B1 (2)
   93   161           4.1296553225         112.3736342903      PH        B2 (3)
   94   109           4.1296553225         112.3736342903      PH        B1 (2)
   95   110           4.1780713202         113.6911005675      PI        B1 (2)
   96   162           4.1780713202         113.6911005675      PI        B2 (3)
   97    38           4.2111387246         114.5909103853      DE        A1 (1)
   98   202           4.2111387246         114.5909103853      DE        A2 (4)
   99    39           4.2168726916         114.7469395612     SG+        A1 (1)
  100    40           4.2973497901         116.9368327431      DE        A1 (1)
  101   203           4.2973497901         116.9368327431      DE        A2 (4)
  102    41           4.3827033713         119.2594217651     SG+        A1 (1)
  103   111           4.8076202563         130.8219980350      PI        B1 (2)
  104   163           4.8076202563         130.8219980350      PI        B2 (3)
  105   204           4.9591135584         134.9443403627      DE        A2 (4)
  106    42           4.9591135584         134.9443403628      DE        A1 (1)
  107   112           4.9862938376         135.6839533610      PI        B1 (2)
  108   164           4.9862938376         135.6839533611      PI        B2 (3)
  109    43           5.0881159968         138.4546751720     SG+        A1 (1)
  110    44           5.3533239685         145.6713509720     SG+        A1 (1)
  111   113           5.5635411033         151.3916500244      PI        B1 (2)
  112   165           5.5635411033         151.3916500244      PI        B2 (3)
  113   205           5.8688920004         159.7006703566      PI        A2 (4)
  114    45           5.8688920004         159.7006703566      PI        A1 (1)
  115   114           5.9834954404         162.8191885002      PH        B1 (2)
  116   166           5.9834954404         162.8191885002      PH        B2 (3)
  117    46           6.2060585155         168.8754376691     SG+        A1 (1)
  118    47           6.2205911147         169.2708897959      DE        A1 (1)
  119   206           6.2205911147         169.2708897959      DE        A2 (4)
  120   115           6.2510727587         170.1003374987      PI        B1 (2)
  121   167           6.2510727587         170.1003374987      PI        B2 (3)
  122   116           6.4050341687         174.2898404556      PH        B1 (2)
  123   168           6.4050341687         174.2898404556      PH        B2 (3)
  124    48           6.4599599082         175.7844458099     SG+        A1 (1)
  125   207           6.5353543139         177.8360318915      DE        A2 (4)
  126    49           6.5353543139         177.8360318916      DE        A1 (1)
  127   208           6.7076853197         182.5253969620      DE        A2 (4)
  128    50           6.7076853197         182.5253969621      DE        A1 (1)
  129   117           7.0812356396         192.6902179346      PI        B1 (2)
  130   169           7.0812356396         192.6902179346      PI        B2 (3)
  131    51           7.4003446512         201.3736155946     SG+        A1 (1)
  132   170           7.8688719765         214.1228922772      PI        B2 (3)
  133   118           7.8688719765         214.1228922772      PI        B1 (2)
  134    52           8.2778465766         225.2516569222     SG+        A1 (1)
  135    53           9.9583623025         270.9808146492     SG+        A1 (1)
  136   171          10.0404520680         273.2145907328      PI        B2 (3)
  137   119          10.0404520680         273.2145907329      PI        B1 (2)
  138   209          10.6191929936         288.9629319477      PI        A2 (4)
  139    54          10.6191929936         288.9629319477      PI        A1 (1)
  140   172          10.7856072744         293.4912947451      PH        B2 (3)
  141   120          10.7856072744         293.4912947451      PH        B1 (2)
  142    55          10.8322280938         294.7599117354     SG+        A1 (1)
  143   210          11.0191596474         299.8465779101      DE        A2 (4)
  144    56          11.0191596474         299.8465779101      DE        A1 (1)
  145   173          11.1499177258         303.4046861159      PI        B2 (3)
  146   121          11.1499177258         303.4046861159      PI        B1 (2)
  147    57          11.4715543943         312.1568648164     SG+        A1 (1)
  148   174          11.8633546619         322.8182921156      PH        B2 (3)
  149   122          11.8633546619         322.8182921156      PH        B1 (2)
  150    58          12.1064009243         329.4319171451      DE        A1 (1)
  151   211          12.1064009243         329.4319171457      DE        A2 (4)
  152   175          12.6014990593         342.9042223162      PI        B2 (3)
  153   123          12.6014990593         342.9042223163      PI        B1 (2)
  154    59          12.7798518546         347.7574486101      DE        A1 (1)
  155   212          12.7798518546         347.7574486101      DE        A2 (4)
  156    60          12.9613431312         352.6960773217     SG+        A1 (1)
  157   176          13.2608989507         360.8474055748      PI        B2 (3)
  158   124          13.2608989507         360.8474055748      PI        B1 (2)
  159    61          14.2634147804         388.1272481825     SG+        A1 (1)
  160    62          17.6362751755         479.9074455476     SG+        A1 (1)
  161   125          18.9983031438         516.9701107964      PI        B1 (2)
  162   177          18.9983031438         516.9701107966      PI        B2 (3)
  163    63          20.4531479547         556.5584507320     SG+        A1 (1)
  164    64          26.3700803192         717.5663658536      DE        A1 (1)
  165   213          26.3700803192         717.5663658537      DE        A2 (4)
  166   178          26.7972538023         729.1903472821      PI        B2 (3)
  167   126          26.7972538023         729.1903472821      PI        B1 (2)
  168    65          27.3997124047         745.5840792940     SG+        A1 (1)
  169   179          33.6873995594         916.6807451608      PI        B2 (3)
  170   127          33.6873995595         916.6807451612      PI        B1 (2)
  171    66          34.4793669414         938.2312732305     SG+        A1 (1)
  172    67          36.1791679117         984.4852091374     SG+        A1 (1)
  173    68          47.0854187112        1281.2593811008      DE        A1 (1)
  174   214          47.0854187112        1281.2593811008      DE        A2 (4)
  175   128          47.3160614162        1287.5354881731      PI        B1 (2)
  176   180          47.3160614162        1287.5354881731      PI        B2 (3)
  177    69          47.9548795270        1304.9186127101     SG+        A1 (1)
  178    70          63.9697487652        1740.7053596515     SG+        A1 (1)
  179   129          66.5238169192        1810.2050874200      PI        B1 (2)
  180   181          66.5238169192        1810.2050874201      PI        B2 (3)
  181    71          67.5804766637        1838.9582608506     SG+        A1 (1)
  182   130          98.5861704031        2682.6660807757      PH        B1 (2)
  183   182          98.5861704031        2682.6660807757      PH        B2 (3)
  184   215          98.6003903305        2683.0530246737      DE        A2 (4)
  185    72          98.6003903305        2683.0530246737      DE        A1 (1)
  186   131          98.6284683372        2683.8170660780      PI        B1 (2)
  187   183          98.6284683372        2683.8170660780      PI        B2 (3)
  188    73          98.6506115371        2684.4196131817     SG+        A1 (1)
  189   184         103.2865098768        2810.5688203042      PH        B2 (3)
  190   132         103.2865098768        2810.5688203042      PH        B1 (2)
  191   216         103.3097764513        2811.2019359846      DE        A2 (4)
  192    74         103.3097764514        2811.2019359867      DE        A1 (1)
  193   133         103.3530638512        2812.3798460198      PI        B1 (2)
  194   185         103.3530638512        2812.3798460198      PI        B2 (3)
  195    75         103.3623767855        2812.6332638454     SG+        A1 (1)
  196    76         115.0562795169        3130.8405345117      DE        A1 (1)
  197   217         115.0562795169        3130.8405345117      DE        A2 (4)
  198   134         115.2621857587        3136.4435282015      PI        B1 (2)
  199   186         115.2621857587        3136.4435282015      PI        B2 (3)
  200    77         115.5713128868        3144.8553050028     SG+        A1 (1)
  201   187         116.9528650580        3182.4492508224      PI        B2 (3)
  202   135         116.9528650580        3182.4492508224      PI        B1 (2)
  203    78         117.5951773163        3199.9274559445     SG+        A1 (1)
  204    79         122.3681332538        3329.8061899109     SG+        A1 (1)
  205   218         198.5552133845        5402.9620374742      DE        A2 (4)
  206    80         198.5552133845        5402.9620374742      DE        A1 (1)
  207   188         198.6784801968        5406.3162979653      PI        B2 (3)
  208   136         198.6784801968        5406.3162979656      PI        B1 (2)
  209    81         199.0121523977        5415.3959801525     SG+        A1 (1)
  210    82         216.4910249536        5891.0202826707     SG+        A1 (1)
  211   137         224.9752471448        6121.8877055673      PI        B1 (2)
  212   189         224.9752471448        6121.8877055673      PI        B2 (3)
  213    83         225.8066658603        6144.5117590001     SG+        A1 (1)
  214   138         395.4203753486       10759.9354377832      PI        B1 (2)
  215   190         395.4203753486       10759.9354377834      PI        B2 (3)
  216    84         395.9580658077       10774.5667390170     SG+        A1 (1)
  217    85         508.9781680222       13850.0000722826     SG+        A1 (1)
  218    86         895.3248876827       24363.0287862960     SG+        A1 (1)


  VSCF finished.

 @CHECKOUT-I, Total execution time (CPU/WALL):       52.81/      12.03 seconds.
--executable xvscf finished with status     0 in       12.08 seconds (walltime).
 --invoking executable--
/nfs/workspaces/public/cfour_mpi/bin/xvtran
 @GETMEM-I,  Allocated    3814 MB of main memory.
  Full RHF integral transformation
  Transformation of IIII integrals :
  1 pass through the AO integral file was required.
     4515274 AO integrals were read.
     8775198 MO integrals were written to HF2.
  Transformation of IIJJ integrals :
  1 pass through the AO integral file was required.
    10240125 AO integrals were read.
    14551504 MO integrals were written to HF2.
  Transformation of IJIJ integrals :
  1 pass through the AO integral file was required.
    19440900 AO integrals were read.
    27266391 MO integrals were written to HF2.
  Transformation of IJKL integrals :
  1 pass through the AO integral file was required.
    14394662 AO integrals were read.
    18420996 MO integrals were written to HF2.
  Summary of active molecular orbitals: 
------------------------------------------------------------------------
 
  Index      Eigenvalue    Symmetry    Index      Eigenvalue    Symmetry
------------------------------------------------------------------------
     1       -20.6642363        1       110         4.1296553        2
     2       -11.4459398        1       111         4.1780713        2
     3        -1.3934110        1       112         4.8076203        2
     4        -0.7929990        1       113         4.9862938        2
     5        -0.5651067        1       114         5.5635411        2
     6        -0.5634526        2       115         5.9834954        2
     7        -0.5634526        3       116         6.2510728        2
     8         0.0630663        1       117         6.4050342        2
     9         0.0710103        1       118         7.0812356        2
    10         0.1564437        1       119         7.8688720        2
    11         0.2265861        1       120        10.0404521        2
    12         0.2272850        1       121        10.7856073        2
    13         0.2996374        1       122        11.1499177        2
    14         0.3786046        1       123        11.8633547        2
    15         0.5092305        1       124        12.6014991        2
    16         0.5370236        1       125        13.2608990        2
    17         0.5446275        1       126        18.9983031        2
    18         0.7518401        1       127        26.7972538        2
    19         0.7572392        1       128        33.6873996        2
    20         0.8261226        1       129        47.3160614        2
    21         0.8683397        1       130        66.5238169        2
    22         0.8789062        1       131        98.5861704        2
    23         1.1248916        1       132        98.6284683        2
    24         1.4147426        1       133       103.2865099        2
    25         1.5522170        1       134       103.3530639        2
    26         1.6469086        1       135       115.2621858        2
    27         1.7320931        1       136       116.9528651        2
    28         1.8529491        1       137       198.6784802        2
    29         2.0318117        1       138       224.9752471        2
    30         2.0902875        1       139       395.4203753        2
    31         2.1598874        1       140         0.0450162        3
    32         2.2887273        1       141         0.0969934        3
    33         2.3288346        1       142         0.1698609        3
    34         2.4980571        1       143         0.3025646        3
    35         2.6704245        1       144         0.3972392        3
    36         2.8340129        1       145         0.6253165        3
    37         3.3547424        1       146         0.7430759        3
    38         3.7021968        1       147         0.7999257        3
    39         3.8984153        1       148         0.8960577        3
    40         4.2111387        1       149         1.0400823        3
    41         4.2168727        1       150         1.4328812        3
    42         4.2973498        1       151         1.5677319        3
    43         4.3827034        1       152         1.6697504        3
    44         4.9591136        1       153         2.0643981        3
    45         5.0881160        1       154         2.2328579        3
    46         5.3533240        1       155         2.2800225        3
    47         5.8688920        1       156         2.2901895        3
    48         6.2060585        1       157         2.5396246        3
    49         6.2205911        1       158         2.6823970        3
    50         6.4599599        1       159         3.6273294        3
    51         6.5353543        1       160         4.0606735        3
    52         6.7076853        1       161         4.1296553        3
    53         7.4003447        1       162         4.1780713        3
    54         8.2778466        1       163         4.8076203        3
    55         9.9583623        1       164         4.9862938        3
    56        10.6191930        1       165         5.5635411        3
    57        10.8322281        1       166         5.9834954        3
    58        11.0191596        1       167         6.2510728        3
    59        11.4715544        1       168         6.4050342        3
    60        12.1064009        1       169         7.0812356        3
    61        12.7798519        1       170         7.8688720        3
    62        12.9613431        1       171        10.0404521        3
    63        14.2634148        1       172        10.7856073        3
    64        17.6362752        1       173        11.1499177        3
    65        20.4531480        1       174        11.8633547        3
    66        26.3700803        1       175        12.6014991        3
    67        27.3997124        1       176        13.2608990        3
    68        34.4793669        1       177        18.9983031        3
    69        36.1791679        1       178        26.7972538        3
    70        47.0854187        1       179        33.6873996        3
    71        47.9548795        1       180        47.3160614        3
    72        63.9697488        1       181        66.5238169        3
    73        67.5804767        1       182        98.5861704        3
    74        98.6003903        1       183        98.6284683        3
    75        98.6506115        1       184       103.2865099        3
    76       103.3097765        1       185       103.3530639        3
    77       103.3623768        1       186       115.2621858        3
    78       115.0562795        1       187       116.9528651        3
    79       115.5713129        1       188       198.6784802        3
    80       117.5951773        1       189       224.9752471        3
    81       122.3681333        1       190       395.4203753        3
    82       198.5552134        1       191         0.2265861        4
    83       199.0121524        1       192         0.5446275        4
    84       216.4910250        1       193         0.7572392        4
    85       225.8066659        1       194         0.8789062        4
    86       395.9580658        1       195         1.5522170        4
    87       508.9781680        1       196         1.7320931        4
    88       895.3248877        1       197         2.0902875        4
    89         0.0450162        2       198         2.1598874        4
    90         0.0969934        2       199         2.3288346        4
    91         0.1698609        2       200         2.8340129        4
    92         0.3025646        2       201         3.7021968        4
    93         0.3972392        2       202         4.2111387        4
    94         0.6253165        2       203         4.2973498        4
    95         0.7430759        2       204         4.9591136        4
    96         0.7999257        2       205         5.8688920        4
    97         0.8960577        2       206         6.2205911        4
    98         1.0400823        2       207         6.5353543        4
    99         1.4328812        2       208         6.7076853        4
   100         1.5677319        2       209        10.6191930        4
   101         1.6697504        2       210        11.0191596        4
   102         2.0643981        2       211        12.1064009        4
   103         2.2328579        2       212        12.7798519        4
   104         2.2800225        2       213        26.3700803        4
   105         2.2901895        2       214        47.0854187        4
   106         2.5396246        2       215        98.6003903        4
   107         2.6823970        2       216       103.3097765        4
   108         3.6273294        2       217       115.0562795        4
   109         4.0606735        2       218       198.5552134        4
------------------------------------------------------------------------
  -20.6642362676386       -11.4459397888979       -1.39341099075775     
 -0.792999008000192      -0.565106660673597      -0.563452577673055     
 -0.563452577673041       6.306629284910223E-002  7.101034831297579E-002
  0.156443702249646       0.226586126631769       0.227284977270143     
  0.299637381774611       0.378604633814952       0.509230545760167     
  0.537023593983078       0.544627542388835       0.751840127539759     
  0.757239223007814       0.826122633367332       0.868339698786173     
  0.878906207611483        1.12489157323880        1.41474261034182     
   1.55221702860830        1.64690864194242        1.73209310827373     
   1.85294907643939        2.03181169626813        2.09028753841417     
   2.15988740562224        2.28872732046715        2.32883462578627     
   2.49805712995889        2.67042447430739        2.83401288971634     
   3.35474237053769        3.70219675532369        3.89841529438256     
   4.21113872458540        4.21687269163821        4.29734979012920     
   4.38270337130583        4.95911355843770        5.08811599677816     
   5.35332396852827        5.86889200041770        6.20605851553741     
   6.22059111466879        6.45995990817354        6.53535431394338     
   6.70768531974201        7.40034465115241        8.27784657659809     
   9.95836230249237        10.6191929936092        10.8322280937534     
   11.0191596473590        11.4715543942697        12.1064009242938     
[...]
 Convergence information after    11 iterations: 
 Largest element of residual vector : -0.42070727E-05.
 Largest element of DIIS residual   : -0.19806779E-05.
 Convergence information after    12 iterations: 
 Largest element of residual vector : -0.24018309E-05.
 Largest element of DIIS residual   : -0.12409765E-05.
 Convergence information after    13 iterations: 
 Largest element of residual vector : -0.96249437E-06.
 Largest element of DIIS residual   : -0.36404470E-06.
 Convergence information after    14 iterations: 
 Largest element of residual vector : -0.47608830E-06.
 Largest element of DIIS residual   : -0.22922960E-06.
 Convergence information after    15 iterations: 
 Largest element of residual vector : -0.15442338E-06.
 Largest element of DIIS residual   : -0.93814140E-07.
 Perturbed amplitude equations converged in    15 iterations.
  Dominant contributions to perturbed wavefunction:
    7    7  140   28  -0.2322895318 ABAB
    7    7   28  140  -0.2322895318 ABAB
    7    7  140   39  -0.1972729062 ABAB
    7    7   39  140  -0.1972729062 ABAB
    7    7  141   28  -0.1780149963 ABAB
    7    7   28  141  -0.1780149963 ABAB
    7    7  140   54  -0.1566273033 ABAB
    7    7   54  140  -0.1566273033 ABAB
    7    7  141   39  -0.1564729617 ABAB
    7    7   39  141  -0.1564729617 ABAB
    7    6   28   89  -0.1495191180 ABAB
    6    7   89   28  -0.1495191180 ABAB
    7    7  140   20  -0.1415347972 ABAB
    7    7   20  140  -0.1415347972 ABAB
    7    7  140   45   0.1307293426 ABAB
    7    7   45  140   0.1307293426 ABAB
    7    6   39   89  -0.1273519623 ABAB
    6    7   89   39  -0.1273519623 ABAB
    7    7  141   54  -0.1251928097 ABAB
    7    7   54  141  -0.1251928097 ABAB
  norm of converged amps    2.00648507536137     
 Starting iterative solution of the perturbed Lambda equations.
 The DIIS procedure is used to accelerate convergence.
 Convergence criterion is 10**(-7).
 Maximum number of iterations is 100.
 Convergence information after     1 iterations: 
 Largest element of residual vector :  0.62819411E-01.
 Largest element of DIIS residual   :  0.62819411E-01.
 Convergence information after     2 iterations: 
 Largest element of residual vector : -0.12214717E-01.
 Largest element of DIIS residual   :  0.77536899E-02.
 Convergence information after     3 iterations: 
 Largest element of residual vector :  0.48593632E-02.
 Largest element of DIIS residual   :  0.43598198E-02.
 Convergence information after     4 iterations: 
 Largest element of residual vector :  0.31204851E-02.
 Largest element of DIIS residual   :  0.26993555E-02.
 Convergence information after     5 iterations: 
 Largest element of residual vector :  0.21592526E-02.
 Largest element of DIIS residual   :  0.12109982E-02.
 Convergence information after     6 iterations: 
 Largest element of residual vector :  0.84218626E-03.
 Largest element of DIIS residual   :  0.32635798E-03.
 Convergence information after     7 iterations: 
 Largest element of residual vector :  0.30115922E-03.
 Largest element of DIIS residual   :  0.13848452E-03.
 Convergence information after     8 iterations: 
 Largest element of residual vector :  0.88634167E-04.
 Largest element of DIIS residual   :  0.56220344E-04.
 Convergence information after     9 iterations: 
 Largest element of residual vector :  0.34516064E-04.
 Largest element of DIIS residual   : -0.94211137E-05.
 Convergence information after    10 iterations: 
 Largest element of residual vector : -0.67643214E-05.
 Largest element of DIIS residual   : -0.53522245E-05.
 Convergence information after    11 iterations: 
 Largest element of residual vector : -0.30797181E-05.
 Largest element of DIIS residual   : -0.17254177E-05.
 Convergence information after    12 iterations: 
 Largest element of residual vector : -0.18223977E-05.
 Largest element of DIIS residual   : -0.13654582E-05.
 Convergence information after    13 iterations: 
 Largest element of residual vector : -0.10101995E-05.
 Largest element of DIIS residual   : -0.68552065E-06.
 Convergence information after    14 iterations: 
 Largest element of residual vector : -0.67301912E-06.
 Largest element of DIIS residual   : -0.44181090E-06.
 Convergence information after    15 iterations: 
 Largest element of residual vector : -0.30428918E-06.
 Largest element of DIIS residual   : -0.18399020E-06.
 Convergence information after    16 iterations: 
 Largest element of residual vector : -0.16402765E-06.
 Largest element of DIIS residual   : -0.64071039E-07.
 Perturbed Lambda equations converged in    16 iterations.
  Dominant contributions to perturbed wavefunction:
    7    7  140   28  -0.2127266632 ABAB
    7    7   28  140  -0.2127266632 ABAB
    7    7  140   39  -0.1787423778 ABAB
    7    7   39  140  -0.1787423778 ABAB
    7    7  141   28  -0.1617022224 ABAB
    7    7   28  141  -0.1617022224 ABAB
    7    7  140   54  -0.1449192862 ABAB
    7    7   54  140  -0.1449192862 ABAB
    7    7  141   39  -0.1406537490 ABAB
    7    7   39  141  -0.1406537490 ABAB
    7    6   28   89  -0.1345240526 ABAB
    6    7   89   28  -0.1345240526 ABAB
    7    7  140   20  -0.1271392936 ABAB
    7    7   20  140  -0.1271392936 ABAB
    7    7  140   45   0.1175610468 ABAB
    7    7   45  140   0.1175610468 ABAB
    7    7  141   54  -0.1150516069 ABAB
    7    7   54  141  -0.1150516069 ABAB
    7    6   39   89  -0.1133792821 ABAB
    6    7   89   39  -0.1133792821 ABAB
        The DBOC first-order density matrix is being calculated 
             (Symmetry block 3, perturbation   2)
 term   4.54281479964694     
 final tnorm  0.857743636896486     
  norm contr. I: |<0|L dT/dx|0>|^2   0.000000000000000E+000
  norm contr. II: <0|[nabla(1+L)e-T][nabla e^T]|0>   4.54281479964694     
  total norm contribution   4.54281479964694     
 oo  7.512262292607246E-003
 vv  -30.2657059214499     
 vo  6.065084058321296E-002
  Correlated perturbed 1-el contribution to DBOC  -30.1975428185741       cm**-1
  SUM_I |dc_I/dx|^2 contribution to DBOC   15.1975270038611       cm**-1
 
 
  The total diagonal Born-Oppenheimer correction (DBOC) is:      0.0038675728 a.u.
  The total diagonal Born-Oppenheimer correction (DBOC) is:        848.834110 cm-1
 
 Total CC energy including DBOC  -113.215779394837     
 First-order density matrix is being calculated  (Symmetry block 3, perturbation   2)
 Calculation of the contributions of <pq||rs> to dI(i,j)/dx required   1.9 seconds.
 Calculation of the contributions of <pq||rs> to dI(a,b)/dx required  16.2 seconds.
 Calculation of the contributions of <pq||rs> to dI(i,a)/dx required   9.8 seconds.
 First-order Z-vector equations are solved for 1 perturbation.
 Convergence reached after  19 iterations.
        U*G(pq,rs) contribution is being calculated
             (Symmetry block 3, perturbation   2)

 CCSD contribution to force constants 

        0.0000000000        0.0000000000        0.0000000000
        0.0000000000        0.0000000000        0.0000000000
        0.0000000000        0.0000000000        0.0000000000
        0.0000000000        0.0000000000        0.0000000000
        0.0000000000        0.0000000000        0.0000000000
        0.0000000000        0.0000000000        0.0000000000
        0.0000000000        0.0000000000        0.0000000000
        0.0000000000        0.0000000000        0.0000000000
        0.0000000000        0.0000000000        0.0000000000
        0.0000000000        0.0000000000        0.0000000000
        0.0000000000        0.0000000000        0.0000000000
        0.0000000000        1.1902986643       -1.1902986643

 CCSD contribution to dipole derivatives 

        0.0000000000        0.0000000000        0.0000000000
        0.0000000000        0.0000000000        0.0000000000
        0.0000000000        0.0000000000        0.0000000000
        0.0000000000        0.0000000000       -0.0525140554
        0.0000000000        0.0000000000        0.0000000000
        0.0000000000        0.0000000000        0.0000000000
 @CHECKOUT-I, Total execution time (CPU/WALL):     1039.30/     323.16 seconds.
--executable xsdcc finished with status     0 in      323.31 seconds (walltime).
 --invoking executable--
/nfs/workspaces/public/cfour_mpi/bin/xanti
 @GETMEM-I,  Allocated    3814 MB of main memory.
 CCSD MO derivative gammas will be sorted to Mulliken order.
 @CHECKOUT-I, Total execution time (CPU/WALL):       12.61/      36.51 seconds.
--executable xanti finished with status     0 in       36.62 seconds (walltime).
 --invoking executable--
/nfs/workspaces/public/cfour_mpi/bin/xbcktrn
 @GETMEM-I,  Allocated    3814 MB of main memory.
 CCSD MO derivative gammas will be transformed to the AO basis.
 @CHECKOUT-I, Total execution time (CPU/WALL):       24.35/      10.41 seconds.
--executable xbcktrn finished with status     0 in       10.46 seconds (walltime).
 --invoking executable--
/nfs/workspaces/public/cfour_mpi/bin/xvdint
 @GETMEM-I,  Allocated    3814 MB of main memory.
 One- and two-electron integral derivatives are calculated
 for RHF-CC/MBPT hessians and dipole derivatives.
 Spherical gaussians are used.
  magnet F F
                    8722  records have been written to the Sort file.
  Total length of Sort file :             178609116  words.
 Evaluation of 2el integral derivatives

                      Two-electron integral gradient
                      ------------------------------

                         C #1 z     0.0000000000
                         O #2 z     0.0000000000


 C #1       0.0000000000           -0.1437213730            0.0000000000
 O #2       0.0000000000            0.1437213730            0.0000000000


 Evaluation of 2e integral derivatives required  356.44 seconds.
  contribution to Hessian
        0.0000000000        0.0000000000        0.0000000000
        0.0000000000       -0.1437213730        0.1437213730
 @CHECKOUT-I, Total execution time (CPU/WALL):      356.42/      72.19 seconds.
--executable xvdint finished with status     0 in       72.35 seconds (walltime).
 --invoking executable--
/nfs/workspaces/public/cfour_mpi/bin/xanti
 @GETMEM-I,  Allocated    3814 MB of main memory.
 CCSD MO gammas will be sorted to Mulliken order.
 @CHECKOUT-I, Total execution time (CPU/WALL):       13.67/      17.37 seconds.
--executable xanti finished with status     0 in       17.50 seconds (walltime).
 --invoking executable--
/nfs/workspaces/public/cfour_mpi/bin/xbcktrn
 @GETMEM-I,  Allocated    3814 MB of main memory.
 CCSD MO gammas will be transformed to the AO basis.
 @CHECKOUT-I, Total execution time (CPU/WALL):       33.45/      15.32 seconds.
--executable xbcktrn finished with status     0 in       15.36 seconds (walltime).
 --invoking executable--
/nfs/workspaces/public/cfour_mpi/bin/xvdint
 @GETMEM-I,  Allocated    3814 MB of main memory.
 One- and two-electron integral derivatives are calculated
 for RHF-CC/MBPT hessians and dipole derivatives.
 Spherical gaussians are used.
  magnet F F

                     Kinetic energy integral gradient
                     --------------------------------

                         C #1 z    -0.9529831138
                         O #2 z     0.9529831138


 C #1       0.0000000000            0.0000000000           -0.9529831138
 O #2       0.0000000000            0.0000000000            0.9529831138



                   Nuclear attraction integral gradient
                   ------------------------------------

                         C #1 z    18.5101028583
                         O #2 z   -18.5101028583


 C #1       0.0000000000            0.0000000000           18.5101028583
 O #2       0.0000000000            0.0000000000          -18.5101028583



                      Reorthonormalization gradient
                      -----------------------------

                         C #1 z     0.0000000000
                         O #2 z     0.0000000000


 C #1       0.0000000000            0.0000000000            0.0000000000
 O #2       0.0000000000            0.0000000000            0.0000000000



                     Kinetic energy integral Hessian
                     -------------------------------


           Symmetry 1

           C #1 z      O #2 z

 C #1 z    0.917322
 O #2 z   -0.917322    0.917322


           Symmetry 2

           C #1 x      O #2 x

 C #1 x   -0.960610
 O #2 x    0.960610   -0.960610


           Symmetry 3

           C #1 y      O #2 y

 C #1 y   -0.960610
 O #2 y    0.960610   -0.960610




           C #1 x      C #1 y      C #1 z      O #2 x      O #2 y      O #2 z

 C #1 x   -0.960610
 C #1 y    0.000000   -0.960610
 C #1 z    0.000000    0.000000    0.917322

 O #2 x    0.960610    0.000000    0.000000   -0.960610
 O #2 y    0.000000    0.960610    0.000000    0.000000   -0.960610
 O #2 z    0.000000    0.000000   -0.917322    0.000000    0.000000    0.917322




                   Nuclear attraction integral Hessian
                   -----------------------------------


           Symmetry 1

           C #1 z      O #2 z

 C #1 z  -11.406513
 O #2 z   11.406513  -11.406513


           Symmetry 2

           C #1 x      O #2 x

 C #1 x   12.869709
 O #2 x  -12.869709   12.869709


           Symmetry 3

           C #1 y      O #2 y

 C #1 y   12.869709
 O #2 y  -12.869709   12.869709




           C #1 x      C #1 y      C #1 z      O #2 x      O #2 y      O #2 z

 C #1 x   12.869709
 C #1 y    0.000000   12.869709
 C #1 z    0.000000    0.000000  -11.406513

 O #2 x  -12.869709    0.000000    0.000000   12.869709
 O #2 y    0.000000  -12.869709    0.000000    0.000000   12.869709
 O #2 z    0.000000    0.000000   11.406513    0.000000    0.000000  -11.406513




                Highest order reorthonormalization Hessian
                ------------------------------------------


           Symmetry 1

           C #1 z      O #2 z

 C #1 z    0.000000
 O #2 z    0.000000    0.000000


           Symmetry 2

           C #1 x      O #2 x

 C #1 x    0.000000
 O #2 x    0.000000    0.000000


           Symmetry 3

           C #1 y      O #2 y

 C #1 y    0.000000
 O #2 y    0.000000    0.000000




           C #1 x      C #1 y      C #1 z      O #2 x      O #2 y      O #2 z




                Electronic contributions to dipole moment
                -----------------------------------------

                               au             Debye

                    z     -0.79795137     -2.02819042

  Conversion factor used: 1 a.u. =   2.54174691 Debye 



   Electronic contributions to static part of dipole moment derivatives
   --------------------------------------------------------------------


                     Total dipole moment derivatives
                     -------------------------------


           Symmetry 1
                              Ez

               C #1 z    -5.62733706
               O #2 z    -8.37266294

           Symmetry 2
                              Ex

               C #1 x    -5.69477319
               O #2 x    -8.30522681

           Symmetry 3
                              Ey

               C #1 y    -5.69477319
               O #2 y    -8.30522681



                       Ex          Ey          Ez

      C #1    x   -5.694773    0.000000    0.000000
      C #1    y    0.000000   -5.694773    0.000000
      C #1    z    0.000000    0.000000   -5.627337

      O #2    x   -8.305227    0.000000    0.000000
      O #2    y    0.000000   -8.305227    0.000000
      O #2    z    0.000000    0.000000   -8.372663

 Evaluation of 1e integral derivatives required    1.80 seconds.
                    8815  records have been written to the Sort file.
  Total length of Sort file :             180513570  words.
 Evaluation of 2el integral derivatives

                      Two-electron integral gradient
                      ------------------------------

                         C #1 z    -9.3339521247
                         O #2 z     9.3339521247


 C #1       0.0000000000            0.0000000000           -9.3339521247
 O #2       0.0000000000            0.0000000000            9.3339521247


 Evaluation of 2e integral derivatives required  712.03 seconds.

                            Molecular gradient
                            ------------------

                         C #1 z     0.6754197021
                         O #2 z    -0.6754197021


 C #1       0.0000000000            0.0000000000            0.6754197021
 O #2       0.0000000000            0.0000000000           -0.6754197021


  Molecular gradient norm 0.955E+00

                            Molecular hessian
                            -----------------


           Symmetry 1

           C #1 z      O #2 z

 C #1 z   37.298744
 O #2 z  -37.298744   37.298744


           Symmetry 2

           C #1 x      O #2 x

 C #1 x   -0.757472
 O #2 x    0.757472   -0.757472


           Symmetry 3

           C #1 y      O #2 y

 C #1 y   -0.757472
 O #2 y    0.757472   -0.757472




           C #1 x      C #1 y      C #1 z      O #2 x      O #2 y      O #2 z

 C #1 x   -0.757472
 C #1 y    0.000000   -0.757472
 C #1 z    0.000000    0.000000   37.298744

 O #2 x    0.757472    0.000000    0.000000   -0.757472
 O #2 y    0.000000    0.757472    0.000000    0.000000   -0.757472
 O #2 z    0.000000    0.000000  -37.298744    0.000000    0.000000   37.298744




                           Total dipole moment
                           -------------------

                               au             Debye

                    z      0.21037633      0.53472338

  Conversion factor used: 1 a.u. =   2.54174691 Debye 



                     Total dipole moment derivatives
                     -------------------------------


           Symmetry 1
                              Ez

               C #1 z     0.69438105
               O #2 z    -0.69438105

           Symmetry 2
                              Ex

               C #1 x     0.08328015
               O #2 x    -0.08328015

           Symmetry 3
                              Ey

               C #1 y     0.08328015
               O #2 y    -0.08328015



                       Ex          Ey          Ez

      C #1    x    0.083280    0.000000    0.000000
      C #1    y    0.000000    0.083280    0.000000
      C #1    z    0.000000    0.000000    0.694381

      O #2    x   -0.083280    0.000000    0.000000
      O #2    y    0.000000   -0.083280    0.000000
      O #2    z    0.000000    0.000000   -0.694381

 @CHECKOUT-I, Total execution time (CPU/WALL):      713.81/     118.36 seconds.
--executable xvdint finished with status     0 in      121.34 seconds (walltime).
 --invoking executable--
/nfs/workspaces/public/cfour_mpi/bin/xjoda
  @GTFLGS-I, Hessian will be transformed to curvilinear coordinates.
  @GTFLGS-I, Hessian will be transformed to curvilinear coordinates.
  igrd and ihes are                      0                     1
  gradient from JOBARC 
   0.000000000000000   0.000000000000000   0.675419702125978
   0.000000000000000   0.000000000000000  -0.675419702125978
 
  @PROJFCM-I, Projecting force constant matrix onto totally symmetric subspace.
  Largest difference between matrix elements of symmetrized
  and unsymmetrized FCM :    -0.5174971562E-11.
  read isotopes from ZMAT file 
 
  Summary of diagonal Born-Oppenheimer correction at the correlated level
  The total diagonal Born-Oppenheimer correction (DBOC) is:      0.0038675728 a.u.
  The total diagonal Born-Oppenheimer correction (DBOC) is:        848.834110 cm-1
  The total diagonal Born-Oppenheimer correction (DBOC) is:            10.154 kJ/mole
  hellooooooo 
  readis is  F
 
 @CHECKOUT-I, Total execution time (CPU/WALL):        0.02/       0.09 seconds.
--executable xjoda finished with status     0 in        0.16 seconds (walltime).
  The final electronic energy is      -113.215779394836574 a.u. 
  This computation required                         3835.75 seconds (walltime).
