 --invoking executable--
/nfs/workspaces/public/cfour_mpi/bin/xjoda


   *************************************************************************
         <<<     CCCCCC     CCCCCC   |||     CCCCCC     CCCCCC   >>>
       <<<      CCC        CCC       |||    CCC        CCC         >>>
      <<<      CCC        CCC        |||   CCC        CCC            >>>
    <<<        CCC        CCC        |||   CCC        CCC              >>>
      <<<      CCC        CCC        |||   CCC        CCC            >>>
       <<<      CCC        CCC       |||    CCC        CCC         >>>
         <<<     CCCCCC     CCCCCC   |||     CCCCCC     CCCCCC   >>>
   *************************************************************************

     ****************************************************************
     * CFOUR Coupled-Cluster techniques for Computational Chemistry *
     ****************************************************************
 

   Department of Chemistry                Institut fuer Physikalische Chemie
   University of Florida                  Universitaet Mainz
   Gainesville, FL 32611, USA             D-55099 Mainz, Germany

   Department of Chemistry                Fakultaet fuer Chemie und Biowiss.
   Johns Hopkins University               Karlsruher Institut fuer Technologie
   Baltimore, MD 21218, USA               D-76131 Karlsruhe, Germany

   Department of Chemistry                Department of Physical Chemistry
   Southern Methodist University          Eotvos Lorand University
   Dallas, TX 75275, USA                  H-1053 Budapest, Hungary

 
                       Version 2.1
 
                     vincent.theory.phys.ucl.ac.uk                     
                     Mon  3 Mar 19:58:06 GMT 2025                      
                     integer*8 version is running
 
********************************************************************************
*                          Input from ZMAT file                                *
********************************************************************************
Carbon Monoxide DBOC calculation                                                
C                                                                               
O 1 r                                                                           
                                                                                
r=1.7379310344827585                                                            
                                                                                
                                                                                
*CFOUR(CALC=CCSD,BASIS=AUG-PCVQZ,SCF_CONV=10                                    
CC_CONV=14,DBOC=ON,MEMORY=500000000                                             
ZFIELD=200)                                                                     
                                                                                
%isotopes                                                                       
12                                                                              
18                                                                              
********************************************************************************
  @GTFLGS-I, Hessian will be transformed to curvilinear coordinates.
    -------------------------------------------------------------------
                    CFOUR Control Parameters 
    -------------------------------------------------------------------
        External           Internal           Value            Units
          Name               Name
    -------------------------------------------------------------------
       ABCDTYPE             IABCDT         STANDARD    [  0]    ***   
       ANHARMONIC           IANHAR         OFF         [  0]    ***   
       ANH_ALGORIT          IANALG         STANDARD    [  0]    ***   
       ANH_DERIVAT          IANDER         SECOND      [  1]    ***   
       ANH_MODE             ANHMOD         VIBRATION   [  0]    ***   
       ANH_STEPSIZ          ICUBST             50000          x 10-6  
       ANH_SYMMETR          IANHSM         ABELIAN     [  0]    ***   
       AO_LADDERS           IAOLAD         SINGLEPASS  [  1]    ***   
       AV_SCF               IAVSCF         OFF         [  0]    ***   
       BASIS                IBASIS         AUG-PCVQZ   [ 52]    ***   
       BOTHVECTORS          BOTHVC         OFF         [  0]    ***   
       BOX_POTENT           IPIAB          OFF         [  0]    ***   
       BREIT                IBREIT         OFF         [  0]    ***   
       BRUCK_CONV           IBRTOL          10D-  4             ***   
       BRUECKNER            IBRKNR         OFF         [  0]    ***   
       BUFFERSIZE           IBUFFS              4096            ***   
       CACHE_RECS           ICHREC             10               ***   
       CALCLEVEL            ICLLVL         CCSD        [ 10]    ***   
       CCORBOPT             ICCORB         OFF         [  0]  x 0.01  
       CC_CONV              ICCCNV          10D- 14             ***   
       CC_EXPORDER          ICCEOR              5               ***   
       CC_EXTRAPOL          ICCEXT         DIIS        [  1]    ***   
       CC_GUESS             ICCGES         MP2         [  0]    ***   
       CC_MAXCYC            ICCCYC            100              cycles 
       CC_PROGRAM           ICCPRO         VCC         [  0]    ***   
       CHARGE               ICHRGE              0               ***   
       CHOLESKY             ICHOLE         OFF         [  0]    ***   
       CIS_CONV             ICISTL              5               ***   
       COMM_SIZE            IPSIZE            ***               ***   
       CONSTANT             ICONST         OLD         [  1]    ***   
       CONTINUUM            ICONTU         NONE        [  0]    ***   
       CONTRACTION          ICNTYP         GENERAL     [  1]    ***   
       COORDINATES          ICOORD         INTERNAL    [  0]    ***   
       CPHF_CONVER          ICPHFT          10D- 16             ***   
       CPHF_MAXCYC          ICPHFC             64              cycles 
       CUBIC                ICUBIC         OFF         [  0]    ***   
       CURVILINEAR          ICURVY         ON          [  1]    ***   
       DBOC                 IDBOC          ON          [  1]    ***   
       DCT                  IDCT           OFF         [  0]    ***   
       DERIV_LEV            IDRLVL         SECOND      [  2]    ***   
       DEVMEM_SIZE          IDVMEM          50000000           MByte  
       DIAG_MRCC            IEOMST          10D-  0             ***   
       DIFF_TYPE            IDIFTY         RELAXED     [  0]    ***   
       DIRECT               IDIRCT         OFF         [  0]    ***   
       DROPMO               IDRPMO      NONE         
       ECP                  IECP           OFF         [  0]    ***   
       EIGENVECTOR          IVEC                1               ***   
       EL_ANHARM            IELANH         OFF         [  0]    ***   
       EOMFOLLOW            IEOMSR         ENERGY      [  0]    ***   
       EOMIP                IEOMIP         OFF         [  0]    ***   
       EOMLEVEL             HBARFM         SAME        [  0]    ***   
       EOM_MRCC             IMRCCE         NEW         [  1]    ***   
       EOM_NONIT            EOMNON         OFF         [  0]    ***   
       EOM_NSING            IEOMSI          10D-  0             ***   
       EOM_NSTATES          IMRCCD         DAVIDSON    [  0]    ***   
       EOM_NTRIP            IEOMTR          10D-  0             ***   
       EOM_ORDER            IEXORD         ENERGY      [  0]    ***   
       EOM_PROPSTA          IEOMST              0               ***   
       ESTATE_CONV          IEXTOL          10D-  5             ***   
       ESTATE_DIAG          IEXDIG         ITERATIVE   [  0]    ***   
       ESTATE_LOCK          IESLOC         ON          [  1]    ***   
       ESTATE_MAXC          IEXMXC             40               ***   
       ESTATE_PROP          IEXPRP         OFF         [  0]    ***   
       EVAL_HESS            IRECAL              0            # of cyc.
       EXCITATION           IEXCIT              0               ***   
       EXCITE               IEXCIT         NONE        [  0]    ***   
       EXTERN_POT           IEXPOT         OFF         [  0]    ***   
       FCGRADNEW            IFCGNW         OFF         [  0]    ***   
       FC_FIELD             IFINFC              0             x 10-6  
       FD_CALTYPE           IFDCAL         GRADONLY    [  0]    ***   
       FD_PROJECT           IFDPRJ         OFF         [  1]    ***   
       FD_STEPSIZE          IDISFD              0            10-4 bohr
       FD_USEGROUP          IFDGRP         FULL        [  0]    ***   
       FILE_RECSIZ          IFLREC              4096           words  
       FINITE_PERT          IFIPER              0             x 10-6  
       FIXGEOM              IFIXGM         OFF         [  0]    ***   
       FOCK                 IFOCK          AO          [  1]    ***   
       FREQ_ALGORI          IVIALG         STANDARD    [  0]    ***   
       FROZEN_CORE          IFROCO         OFF         [  0]    ***   
       GAMMA_ABCD           IGABCD         STORE       [  0]    ***   
       GAMMA_ABCI           IGABCI         STORE       [  0]    ***   
       GENBAS_1             IGNBS1              0               ***   
       GENBAS_2             IGNBS2              0               ***   
       GENBAS_3             IGNBS3              0               ***   
       GENBAS_4             IGNBS4              0               ***   
       GEO_CONV             ICONTL              5              H/bohr 
       GEO_MAXCYC           IOPTCY             50               ***   
       GEO_MAXSTEP          IMXSTP            300            millibohr
       GEO_METHOD           INR            SINGLE_POINT[  5]    ***   
       GIAO                 IGIAO          OFF         [  1]    ***   
       GIMIC                IGIMIC         OFF         [  0]    ***   
       GRID                 IGRID          OFF         [  0]    ***   
       GRID_ALGO            IGALGO         SERIAL      [  0]    ***   
       GUESS                IGUESS         MOREAD      [  0]    ***   
       HBAR                 IHBAR          OFF         [  0]    ***   
       HESS_TYPE            IHESTP         SCF         [  0]    ***   
       HF2_FILE             IHF2Fl         USE         [  1]    ***   
       HFSTABILITY          ISTABL         OFF         [  0]    ***   
       INCORE               INCORE         OFF         [  0]    ***   
       INPUT_MRCC           IMRCC          ON          [  1]    ***   
       INTEGRALS            INTTYP         VMOL        [  1]    ***   
       JODA_PRINT           IJPRNT              0               ***   
       KEYWORD_OUT          IDMPKW         NO          [  0]    ***   
       LINDEP_TOL           ILINDP              8               ***   
       LINEQ_CONV           IZTACN          10D-  7           cycles  
       LINEQ_EXPOR          ILMAXD              5               ***   
       LINEQ_MAXCY          ILMAXC            100               ***   
       LINEQ_TYPE           ILTYPE         DIIS        [  1]    ***   
       LOCK_ORBOCC          ILOCOC         OFF         [  0]    ***   
       MEMORY_SIZE          IMEMSZ         500000000           words  
       MEM_UNIT             IMEMU          INTEGERWORDS[  0]    ***   
       MRCC                 IMRCCC         OFF         [  0]    ***   
       MULTIPLICTY          IMULTP              1               ***   
       NACOUPLING           IVCOUP         OFF         [  0]    ***   
       NEGEVAL              IDIE           ABORT       [  0]    ***   
       NEWNORM              INEWNO         OFF         [  0]    ***   
       NON-HF               INONHF         OFF         [  0]    ***   
       NTOP_TAMP            ITOPT2             15               ***   
       NUC_MODEL            INUCMO         POINT       [  0]    ***   
       OCCUPATION           IOCCU   ESTIMATED BY SCF 
       OPEN-SHELL           IOPEN          SPIN-ORBITAL[  0]    ***   
       OPTVIB               IOPTVB         OFF         [  0]    ***   
       ORBITALS             IORBTP         STANDARD    [  0]    ***   
       PARALLEL             IPARAL         ON          [  1]    ***   
       PARA_INT             IPINTS         ON          [  1]    ***   
       PARA_PRINT           IPPRIN              0               ***   
       PERT_ORB             IPTORB         STANDARD    [  0]    ***   
       POINTS               IGRDFD              0               ***   
       PRINT                IPRNT               0               ***   
       PROPS                IPROPS         OFF         [  0]    ***   
       PROP_INTEGR          IINTYP         INTERNAL    [  0]    ***   
       PSI                  IPSI           OFF         [  0]    ***   
       QC_ALG               IQCALG         FLM         [  0]    ***   
       QC_LINALG            IQCLIN         TRIDIAG     [  2]    ***   
       QC_MAXCYC            IQCMAX          10D-100           cycles  
       QC_MAXSCFCY          IQCMSC          10D- 15           cycles  
       QC_RTRUST            IQCRTR          10D-  0           x 10-3  
       QC_SKIPSCF           IQCSKI         OFF         [  0]    ***   
       QC_START             IQCSTA          10D-  1             ***   
       QRHFGUESS            IQGUES         OFF         [  0]    ***   
       QUARTIC              IQUART         OFF         [  0]    ***   
       RAMAN_INT            IRAMIN         OFF         [  0]    ***   
       RAMAN_ORB            IRAMRE         UNRELAXED   [  0]    ***   
       RDO                  IRDOFM         ON          [  1]    ***   
       REDUCE_REPR          REDREP         Ir          [  0]    ***   
       REFERENCE            IREFNC         RHF         [  0]    ***   
       RELATIVIST           IRELAT         OFF         [  0]    ***   
       RELAX_DENS           IRDENS         ON          [  1]    ***   
       RESET_FLAGS          IRESET         OFF         [  0]    ***   
       RESTART_CC           ICCRES         OFF         [  0]    ***   
       ROT_EVEC             ROTVEC              0               ***   
       SAVE_INTS            ISVINT         OFF         [  0]    ***   
       SCALE_ON             ISTCRT              0               ***   
       SCF_CONV             ISCFCV          10D- 10             ***   
       SCF_DAMPING          IDAMP               0             x 10-3  
       SCF_EXPORDE          IRPPOR              6               ***   
       SCF_EXPSTAR          IRPPLS              8               ***   
       SCF_EXTRAPO          IRPP           ON          [  1]    ***   
       SCF_MAXCYC           ISCFCY            150              cycles 
       SCF_NOSTOP           ISCFST         OFF         [  0]    ***   
       SCF_PRINT            ISCFPR              0               ***   
       SCF_PROG             ISCFPR         SCF         [  0]    ***   
       SD_FIELD             IFINSD              0             x 10-6  
       SOPERT               IPERSO         OFF         [  0]    ***   
       SPHERICAL            IDFGHI         ON          [  1]    ***   
       SPINORBIT            ISOCAL         OFF         [  0]    ***   
       SPINROTATIO          ISRCON         OFF         [  0]    ***   
       SPIN_FLIP            ISPFLP         OFF         [  0]    ***   
       SPIN_ORBIT           ISPORB         OFF         [  0]    ***   
       SPIN_SCAL            ISCSMP         OFF         [  0]    ***   
       STEEPSCALE           ISTPSC              1000          x 10-3  
       SUBGROUP             ISUBGP         DEFAULT     [  0]    ***   
       SUBGRPAXIS           ISBXYZ         X           [  0]    ***   
       SYMMETRY             ISYM           ON          [  0]    ***   
       SYM_CHECK            ISYMCK         OVERRIDE    [  1]    ***   
       T3_EXTRAPOL          IT3EXT         OFF         [  0]    ***   
       T4_EXTRAPOL          IT4EXP         OFF         [  0]    ***   
       TAMP_SUM             IEVERY              5               ***   
       TESTSUITE            ITESTS         OFF         [  0]    ***   
       THERMOCH             ITHERM         OFF         [  0]    ***   
       TOL_CHOLESK          ITOLCH          10D-  4             ***   
       TRANGRAD             IRESRM         OFF         [  0]    ***   
       TRANS_INV            ITRAIN         IGNORE      [  1]    ***   
       TREAT_PERT           ITREAT         SIMULTANEOUS[  0]    ***   
       TRIP_ALGORI          ITRALG         NORMAL      [  0]    ***   
       UIJ_THRESHO          IUIJTH              1               ***   
       UNITS                IUNITS         ANGSTROM    [  0]    ***   
       UNOS                 IUNOS          OFF         [  0]    ***   
       UPDATE_HESS          IHUPDT         ON          [  1]    ***   
       VIBPHASE             ISETPH         STANDARD    [  0]    ***   
       VIBRATION            IVIB           ANALYTIC    [  1]    ***   
       VIB_ALGORIT          IGEALG         STANDARD    [  0]    ***   
       VNATORB              IVNORB         OFF         [  0]    ***   
       VTRAN                IVTRAN         FULL/PARTIAL[  0]    ***   
       XFIELD               IXEFLD              0             x 10-6  
       XFORM_TOL            IXFTOL          10D- 11             ***   
       YFIELD               IYEFLD              0             x 10-6  
       ZFIELD               IZEFLD            200             x 10-6  
       ZSCALE_EXP           IZEXPS         OFF         [  0]    ***   
    -------------------------------------------------------------------
   2 entries found in Z-matrix 
   Job Title : Carbon Monoxide DBOC calculation                                                
   There are  1 unique internal coordinates.
   Of these,  0 will be optimized.
   User supplied Z-matrix: 
--------------------------------------------------------------------------------
       SYMBOL    BOND      LENGTH    ANGLE     ANGLE     DIHED     ANGLE
                  TO      (ANGST)    WRT      (DEG)      WRT      (DEG)
--------------------------------------------------------------------------------
        C    
        O          1         r    
                  *Initial values for internal coordinates* 
                      Name             Value
                        r               1.7379310345
--------------------------------------------------------------------------------
  read isotopes from ZMAT file 
   Rotational constants (in cm-1): 
          0.7751880798             0.7751880798
   Rotational constants (in MHz): 
      23239.5572415300         23239.5572415300
********************************************************************************
   The full molecular point group is CXv .
   The largest Abelian subgroup of the full molecular point group is C2v .
   The computational point group is C2v .
********************************************************************************
--------------------------------------------------------------------------------
   Analysis of internal coordinates specified by Z-matrix 
--------------------------------------------------------------------------------
   *The nuclear repulsion energy is   14.615367523809523 a.u.
   *There is   1 degree of freedom within the tot. symm. molecular subspace.
   *Z-matrix requests optimization of   0 coordinates.
   *The optimization is constrained.
   *The following   1 parameters can have non-zero 
    derivatives within the totally symmetric subspace:
             r    [ 1]
   *The following   0 parameters are to be optimized:

   *The following coordinates must be varied in an  unconstrained optimization.
             r    [ 1]
--------------------------------------------------------------------------------


 ----------------------------------------------------------------
         Coordinates used in calculation (QCOMP) 
 ----------------------------------------------------------------
 Z-matrix   Atomic            Coordinates (in bohr)
  Symbol    Number           X              Y              Z
 ----------------------------------------------------------------
     C         6        -0.00000000     0.00000000     1.97049185
     O         8         0.00000000     0.00000000    -1.31372252
 ----------------------------------------------------------------
 
   Interatomic distance matrix (Angstroms) 
 
                 C             O    
                [ 1]        [ 2]
  C    [ 1]     0.00000
  O    [ 2]     1.73793     0.00000
 rotcon2
   Rotational constants (in cm-1): 
          0.7751880798             0.0000000000
   Rotational constants (in MHz): 
      23239.5572415300             0.0000000000
  ECPDATA file not present.   Using default ECPDATA. 
  @GTFLGS-I, Hessian will be transformed to curvilinear coordinates.
  There are  218 basis functions.
 @CHECKOUT-I, Total execution time (CPU/WALL):        0.21/       0.45 seconds.
--executable xjoda finished with status     0 in        0.51 seconds (walltime).
 --invoking executable--
/nfs/workspaces/public/cfour_mpi/bin/xvmol
 SERIAL VERSION OF MOLECULE STARTED
********************************************************************************
                    INPUT FROM MOL FILE
********************************************************************************
INTGRL        1    0    1    0    0    0    0    0    0                         
         *** CFOUR Program System (Release V0.1) ***                            
Carbon Monoxide DBOC calculation                                                
    2    2 X  Y       0.10E-08              0    0                              
   9999.00      3.00                                                            
          6.00000000    1    5    1    1    1    1    1                         
C #1  -0.000000000000000   0.000000000000000   1.970491849078790                
   16    9                                                                      
   33980.0000000000       9.100000000000000E-005 -1.900000000000000E-005        
  0.000000000000000E+000  0.000000000000000E+000  0.000000000000000E+000        
  0.000000000000000E+000  0.000000000000000E+000  0.000000000000000E+000        
  0.000000000000000E+000                                                        
   5089.00000000000       7.040000000000000E-004 -1.510000000000000E-004        
  0.000000000000000E+000  0.000000000000000E+000  0.000000000000000E+000        
  0.000000000000000E+000  0.000000000000000E+000  0.000000000000000E+000        
  0.000000000000000E+000                                                        
   1157.00000000000       3.693000000000000E-003 -7.850000000000000E-004        
  0.000000000000000E+000  0.000000000000000E+000  0.000000000000000E+000        
  0.000000000000000E+000  0.000000000000000E+000  0.000000000000000E+000        
  0.000000000000000E+000                                                        
   326.600000000000       1.536000000000000E-002 -3.324000000000000E-003        
  0.000000000000000E+000  0.000000000000000E+000  0.000000000000000E+000        
  0.000000000000000E+000  0.000000000000000E+000  0.000000000000000E+000        
  0.000000000000000E+000                                                        
   106.100000000000       5.292900000000000E-002 -1.151200000000000E-002        
  0.000000000000000E+000  0.000000000000000E+000  0.000000000000000E+000        
  0.000000000000000E+000  0.000000000000000E+000  0.000000000000000E+000        
  0.000000000000000E+000                                                        
   38.1100000000000       0.147043000000000      -3.416000000000000E-002        
  0.000000000000000E+000  0.000000000000000E+000  0.000000000000000E+000        
  0.000000000000000E+000  0.000000000000000E+000  0.000000000000000E+000        
  0.000000000000000E+000                                                        
   14.7500000000000       0.305631000000000      -7.717300000000001E-002        
  0.000000000000000E+000  0.000000000000000E+000  0.000000000000000E+000        
  0.000000000000000E+000  0.000000000000000E+000  0.000000000000000E+000        
  0.000000000000000E+000                                                        
   6.03500000000000       0.399345000000000      -0.141493000000000             
  0.000000000000000E+000  0.000000000000000E+000  0.000000000000000E+000        
  0.000000000000000E+000  0.000000000000000E+000  0.000000000000000E+000        
  0.000000000000000E+000                                                        
   2.53000000000000       0.217051000000000      -0.118019000000000             
  0.000000000000000E+000  0.000000000000000E+000  0.000000000000000E+000        
  0.000000000000000E+000  0.000000000000000E+000  0.000000000000000E+000        
  0.000000000000000E+000                                                        
  0.735500000000000       1.589400000000000E-002  0.273806000000000             
   1.00000000000000       0.000000000000000E+000  0.000000000000000E+000        
  0.000000000000000E+000  0.000000000000000E+000  0.000000000000000E+000        
  0.000000000000000E+000                                                        
  0.290500000000000      -3.084000000000000E-003  0.586510000000000             
  0.000000000000000E+000   1.00000000000000       0.000000000000000E+000        
  0.000000000000000E+000  0.000000000000000E+000  0.000000000000000E+000        
  0.000000000000000E+000                                                        
  0.111100000000000       9.779999999999999E-004  0.285430000000000             
  0.000000000000000E+000  0.000000000000000E+000   1.00000000000000             
  0.000000000000000E+000  0.000000000000000E+000  0.000000000000000E+000        
  0.000000000000000E+000                                                        
   7.21600000000000       0.000000000000000E+000  0.000000000000000E+000        
  0.000000000000000E+000  0.000000000000000E+000  0.000000000000000E+000        
   1.00000000000000       0.000000000000000E+000  0.000000000000000E+000        
  0.000000000000000E+000                                                        
   19.5700000000000       0.000000000000000E+000  0.000000000000000E+000        
  0.000000000000000E+000  0.000000000000000E+000  0.000000000000000E+000        
  0.000000000000000E+000   1.00000000000000       0.000000000000000E+000        
  0.000000000000000E+000                                                        
   53.0730000000000       0.000000000000000E+000  0.000000000000000E+000        
  0.000000000000000E+000  0.000000000000000E+000  0.000000000000000E+000        
  0.000000000000000E+000  0.000000000000000E+000   1.00000000000000             
  0.000000000000000E+000                                                        
  4.145000000000000E-002  0.000000000000000E+000  0.000000000000000E+000        
  0.000000000000000E+000  0.000000000000000E+000  0.000000000000000E+000        
  0.000000000000000E+000  0.000000000000000E+000  0.000000000000000E+000        
   1.00000000000000                                                             
   10    8                                                                      
   34.5100000000000       5.378000000000000E-003  0.000000000000000E+000        
  0.000000000000000E+000  0.000000000000000E+000  0.000000000000000E+000        
  0.000000000000000E+000  0.000000000000000E+000  0.000000000000000E+000        
   7.91500000000000       3.613200000000000E-002  0.000000000000000E+000        
  0.000000000000000E+000  0.000000000000000E+000  0.000000000000000E+000        
  0.000000000000000E+000  0.000000000000000E+000  0.000000000000000E+000        
   2.36800000000000       0.142493000000000       0.000000000000000E+000        
  0.000000000000000E+000  0.000000000000000E+000  0.000000000000000E+000        
  0.000000000000000E+000  0.000000000000000E+000  0.000000000000000E+000        
  0.813200000000000       0.342150000000000        1.00000000000000             
  0.000000000000000E+000  0.000000000000000E+000  0.000000000000000E+000        
  0.000000000000000E+000  0.000000000000000E+000  0.000000000000000E+000        
  0.289000000000000       0.463864000000000       0.000000000000000E+000        
   1.00000000000000       0.000000000000000E+000  0.000000000000000E+000        
  0.000000000000000E+000  0.000000000000000E+000  0.000000000000000E+000        
  0.100700000000000       0.250028000000000       0.000000000000000E+000        
  0.000000000000000E+000   1.00000000000000       0.000000000000000E+000        
  0.000000000000000E+000  0.000000000000000E+000  0.000000000000000E+000        
   8.18200000000000       0.000000000000000E+000  0.000000000000000E+000        
  0.000000000000000E+000  0.000000000000000E+000   1.00000000000000             
  0.000000000000000E+000  0.000000000000000E+000  0.000000000000000E+000        
   24.1860000000000       0.000000000000000E+000  0.000000000000000E+000        
  0.000000000000000E+000  0.000000000000000E+000  0.000000000000000E+000        
   1.00000000000000       0.000000000000000E+000  0.000000000000000E+000        
   71.4940000000000       0.000000000000000E+000  0.000000000000000E+000        
  0.000000000000000E+000  0.000000000000000E+000  0.000000000000000E+000        
  0.000000000000000E+000   1.00000000000000       0.000000000000000E+000        
  3.218000000000000E-002  0.000000000000000E+000  0.000000000000000E+000        
  0.000000000000000E+000  0.000000000000000E+000  0.000000000000000E+000        
  0.000000000000000E+000  0.000000000000000E+000   1.00000000000000             
    6    6                                                                      
   1.84800000000000        1.00000000000000       0.000000000000000E+000        
  0.000000000000000E+000  0.000000000000000E+000  0.000000000000000E+000        
  0.000000000000000E+000                                                        
  0.649000000000000       0.000000000000000E+000   1.00000000000000             
  0.000000000000000E+000  0.000000000000000E+000  0.000000000000000E+000        
  0.000000000000000E+000                                                        
  0.228000000000000       0.000000000000000E+000  0.000000000000000E+000        
   1.00000000000000       0.000000000000000E+000  0.000000000000000E+000        
  0.000000000000000E+000                                                        
   8.65600000000000       0.000000000000000E+000  0.000000000000000E+000        
  0.000000000000000E+000   1.00000000000000       0.000000000000000E+000        
  0.000000000000000E+000                                                        
   33.2130000000000       0.000000000000000E+000  0.000000000000000E+000        
  0.000000000000000E+000  0.000000000000000E+000   1.00000000000000             
  0.000000000000000E+000                                                        
  7.660000000000000E-002  0.000000000000000E+000  0.000000000000000E+000        
  0.000000000000000E+000  0.000000000000000E+000  0.000000000000000E+000        
   1.00000000000000                                                             
    4    4                                                                      
   1.41900000000000        1.00000000000000       0.000000000000000E+000        
  0.000000000000000E+000  0.000000000000000E+000                                
  0.485000000000000       0.000000000000000E+000   1.00000000000000             
  0.000000000000000E+000  0.000000000000000E+000                                
   24.6940000000000       0.000000000000000E+000  0.000000000000000E+000        
   1.00000000000000       0.000000000000000E+000                                
  0.187000000000000       0.000000000000000E+000  0.000000000000000E+000        
  0.000000000000000E+000   1.00000000000000                                     
    2    2                                                                      
   1.01100000000000        1.00000000000000       0.000000000000000E+000        
  0.424000000000000       0.000000000000000E+000   1.00000000000000             
          8.00000000    1    5    1    1    1    1    1                         
O #2   0.000000000000000   0.000000000000000  -1.313722517874652                
   16    9                                                                      
   61420.0000000000       9.000000000000001E-005 -2.000000000000000E-005        
  0.000000000000000E+000  0.000000000000000E+000  0.000000000000000E+000        
  0.000000000000000E+000  0.000000000000000E+000  0.000000000000000E+000        
  0.000000000000000E+000                                                        
   9199.00000000000       6.980000000000001E-004 -1.590000000000000E-004        
  0.000000000000000E+000  0.000000000000000E+000  0.000000000000000E+000        
  0.000000000000000E+000  0.000000000000000E+000  0.000000000000000E+000        
  0.000000000000000E+000                                                        
   2091.00000000000       3.664000000000000E-003 -8.290000000000000E-004        
  0.000000000000000E+000  0.000000000000000E+000  0.000000000000000E+000        
  0.000000000000000E+000  0.000000000000000E+000  0.000000000000000E+000        
  0.000000000000000E+000                                                        
   590.900000000000       1.521800000000000E-002 -3.508000000000000E-003        
  0.000000000000000E+000  0.000000000000000E+000  0.000000000000000E+000        
  0.000000000000000E+000  0.000000000000000E+000  0.000000000000000E+000        
  0.000000000000000E+000                                                        
   192.300000000000       5.242300000000000E-002 -1.215600000000000E-002        
  0.000000000000000E+000  0.000000000000000E+000  0.000000000000000E+000        
  0.000000000000000E+000  0.000000000000000E+000  0.000000000000000E+000        
  0.000000000000000E+000                                                        
   69.3200000000000       0.145921000000000      -3.626100000000000E-002        
  0.000000000000000E+000  0.000000000000000E+000  0.000000000000000E+000        
  0.000000000000000E+000  0.000000000000000E+000  0.000000000000000E+000        
  0.000000000000000E+000                                                        
   26.9700000000000       0.305258000000000      -8.299200000000000E-002        
  0.000000000000000E+000  0.000000000000000E+000  0.000000000000000E+000        
  0.000000000000000E+000  0.000000000000000E+000  0.000000000000000E+000        
  0.000000000000000E+000                                                        
   11.1000000000000       0.398508000000000      -0.152090000000000             
  0.000000000000000E+000  0.000000000000000E+000  0.000000000000000E+000        
  0.000000000000000E+000  0.000000000000000E+000  0.000000000000000E+000        
  0.000000000000000E+000                                                        
   4.68200000000000       0.216980000000000      -0.115331000000000             
  0.000000000000000E+000  0.000000000000000E+000  0.000000000000000E+000        
  0.000000000000000E+000  0.000000000000000E+000  0.000000000000000E+000        
  0.000000000000000E+000                                                        
   1.42800000000000       1.759400000000000E-002  0.288979000000000             
   1.00000000000000       0.000000000000000E+000  0.000000000000000E+000        
  0.000000000000000E+000  0.000000000000000E+000  0.000000000000000E+000        
  0.000000000000000E+000                                                        
  0.554700000000000      -2.502000000000000E-003  0.586128000000000             
  0.000000000000000E+000   1.00000000000000       0.000000000000000E+000        
  0.000000000000000E+000  0.000000000000000E+000  0.000000000000000E+000        
  0.000000000000000E+000                                                        
  0.206700000000000       9.540000000000000E-004  0.277624000000000             
  0.000000000000000E+000  0.000000000000000E+000   1.00000000000000             
  0.000000000000000E+000  0.000000000000000E+000  0.000000000000000E+000        
  0.000000000000000E+000                                                        
   12.9740000000000       0.000000000000000E+000  0.000000000000000E+000        
  0.000000000000000E+000  0.000000000000000E+000  0.000000000000000E+000        
   1.00000000000000       0.000000000000000E+000  0.000000000000000E+000        
  0.000000000000000E+000                                                        
   34.9000000000000       0.000000000000000E+000  0.000000000000000E+000        
  0.000000000000000E+000  0.000000000000000E+000  0.000000000000000E+000        
  0.000000000000000E+000   1.00000000000000       0.000000000000000E+000        
  0.000000000000000E+000                                                        
   93.8810000000000       0.000000000000000E+000  0.000000000000000E+000        
  0.000000000000000E+000  0.000000000000000E+000  0.000000000000000E+000        
  0.000000000000000E+000  0.000000000000000E+000   1.00000000000000             
  0.000000000000000E+000                                                        
  6.959000000000000E-002  0.000000000000000E+000  0.000000000000000E+000        
  0.000000000000000E+000  0.000000000000000E+000  0.000000000000000E+000        
  0.000000000000000E+000  0.000000000000000E+000  0.000000000000000E+000        
   1.00000000000000                                                             
   10    8                                                                      
   63.4200000000000       6.044000000000000E-003  0.000000000000000E+000        
  0.000000000000000E+000  0.000000000000000E+000  0.000000000000000E+000        
  0.000000000000000E+000  0.000000000000000E+000  0.000000000000000E+000        
   14.6600000000000       4.179900000000000E-002  0.000000000000000E+000        
  0.000000000000000E+000  0.000000000000000E+000  0.000000000000000E+000        
  0.000000000000000E+000  0.000000000000000E+000  0.000000000000000E+000        
   4.45900000000000       0.161143000000000       0.000000000000000E+000        
  0.000000000000000E+000  0.000000000000000E+000  0.000000000000000E+000        
  0.000000000000000E+000  0.000000000000000E+000  0.000000000000000E+000        
   1.53100000000000       0.356731000000000        1.00000000000000             
  0.000000000000000E+000  0.000000000000000E+000  0.000000000000000E+000        
  0.000000000000000E+000  0.000000000000000E+000  0.000000000000000E+000        
  0.530200000000000       0.448309000000000       0.000000000000000E+000        
   1.00000000000000       0.000000000000000E+000  0.000000000000000E+000        
  0.000000000000000E+000  0.000000000000000E+000  0.000000000000000E+000        
  0.175000000000000       0.244940000000000       0.000000000000000E+000        
  0.000000000000000E+000   1.00000000000000       0.000000000000000E+000        
  0.000000000000000E+000  0.000000000000000E+000  0.000000000000000E+000        
   14.4750000000000       0.000000000000000E+000  0.000000000000000E+000        
  0.000000000000000E+000  0.000000000000000E+000   1.00000000000000             
  0.000000000000000E+000  0.000000000000000E+000  0.000000000000000E+000        
   42.7300000000000       0.000000000000000E+000  0.000000000000000E+000        
  0.000000000000000E+000  0.000000000000000E+000  0.000000000000000E+000        
   1.00000000000000       0.000000000000000E+000  0.000000000000000E+000        
   126.140000000000       0.000000000000000E+000  0.000000000000000E+000        
  0.000000000000000E+000  0.000000000000000E+000  0.000000000000000E+000        
  0.000000000000000E+000   1.00000000000000       0.000000000000000E+000        
  5.348000000000000E-002  0.000000000000000E+000  0.000000000000000E+000        
  0.000000000000000E+000  0.000000000000000E+000  0.000000000000000E+000        
  0.000000000000000E+000  0.000000000000000E+000   1.00000000000000             
    6    6                                                                      
   3.77500000000000        1.00000000000000       0.000000000000000E+000        
  0.000000000000000E+000  0.000000000000000E+000  0.000000000000000E+000        
  0.000000000000000E+000                                                        
   1.30000000000000       0.000000000000000E+000   1.00000000000000             
  0.000000000000000E+000  0.000000000000000E+000  0.000000000000000E+000        
  0.000000000000000E+000                                                        
  0.444000000000000       0.000000000000000E+000  0.000000000000000E+000        
   1.00000000000000       0.000000000000000E+000  0.000000000000000E+000        
  0.000000000000000E+000                                                        
   14.9270000000000       0.000000000000000E+000  0.000000000000000E+000        
  0.000000000000000E+000   1.00000000000000       0.000000000000000E+000        
  0.000000000000000E+000                                                        
   57.5440000000000       0.000000000000000E+000  0.000000000000000E+000        
  0.000000000000000E+000  0.000000000000000E+000   1.00000000000000             
  0.000000000000000E+000                                                        
  0.154000000000000       0.000000000000000E+000  0.000000000000000E+000        
  0.000000000000000E+000  0.000000000000000E+000  0.000000000000000E+000        
   1.00000000000000                                                             
    4    4                                                                      
   2.66600000000000        1.00000000000000       0.000000000000000E+000        
  0.000000000000000E+000  0.000000000000000E+000                                
  0.859000000000000       0.000000000000000E+000   1.00000000000000             
  0.000000000000000E+000  0.000000000000000E+000                                
   26.4830000000000       0.000000000000000E+000  0.000000000000000E+000        
   1.00000000000000       0.000000000000000E+000                                
  0.324000000000000       0.000000000000000E+000  0.000000000000000E+000        
  0.000000000000000E+000   1.00000000000000                                     
    2    2                                                                      
   1.84600000000000        1.00000000000000       0.000000000000000E+000        
  0.714000000000000       0.000000000000000E+000   1.00000000000000             
FINISH                                                                          
 
********************************************************************************
 ONE- AND TWO-ELECTRON INTEGRALS OVER SYMMETRY-ADAPTED AOS ARE CALCULATED.

  SPHERICAL HARMONICS ARE USED.
  
  INTEGRALS LESS THAN  0.10E-13 ARE NEGLECTED.

  NUCLEAR REPULSION ENERGY :   14.6153675238 A.U.
  @MOLECU-I, ONE ELECTRON INTEGRALS (CPU/WALL):        0.08/       0.13 SECONDS.
  @TWOEL-I,    4376943 INTEGRALS OF SYMMETRY TYPE  I I I I
  @TWOEL-I,   18890118 INTEGRALS OF SYMMETRY TYPE  I J I J
  @TWOEL-I,    9948265 INTEGRALS OF SYMMETRY TYPE  I I J J
  @TWOEL-I,   13942648 INTEGRALS OF SYMMETRY TYPE  I J K L
  @TWOEL-I, TOTAL NUMBER OF 2-E INTEGRALS   47157974.
  @MOLECU-I, TWO ELECTRON INTEGRALS (CPU/WALL):      259.03/      51.27 SECONDS.
 @CHECKOUT-I, Total execution time (CPU/WALL):      259.13/      51.44 seconds.

Running with 14 threads/proc

--executable xvmol finished with status     0 in       51.49 seconds (walltime).
 --invoking executable--
/nfs/workspaces/public/cfour_mpi/bin/xvmol2ja
 @GETMEM-I,  Allocated    3814 MB of main memory.
 @CHECKOUT-I, Total execution time (CPU/WALL):        0.09/       0.05 seconds.
--executable xvmol2ja finished with status     0 in        0.09 seconds (walltime).
 --invoking executable--
/nfs/workspaces/public/cfour_mpi/bin/xvprop
 @GETMEM-I,  Allocated    3814 MB of main memory.
   Property integrals will be calculated.
    --------------------------------------------------------------
                                   Property evaluated at 
    Property type                X             Y             Z
    --------------------------------------------------------------
    Dipole moment               ----          ----          ----  
    Quadrupole moment           ----          ----          ----  
    Octopole moment             ----          ----          ----  
    Relativisitic corr.         ----          ----          ----  
    Second moment            0.0000000     0.0000000     0.0000000
    Electron density         0.0000000     0.0000000     1.9704918
    Electron density         0.0000000     0.0000000    -1.3137225
    Field gradient           0.0000000     0.0000000     1.9704918
    Field gradient           0.0000000     0.0000000    -1.3137225
    Potential                0.0000000     0.0000000     1.9704918
    Potential                0.0000000     0.0000000    -1.3137225
    --------------------------------------------------------------
 @CHECKOUT-I, Total execution time (CPU/WALL):        1.68/       2.05 seconds.
--executable xvprop finished with status     0 in        2.11 seconds (walltime).
 --invoking executable--
/nfs/workspaces/public/cfour_mpi/bin/xvscf
  There are  218 functions in the AO basis.

  There are 4 irreducible representations.

       Irrep        # of functions
         1                 86
         2                 52
         3                 52
         4                 28


  Parameters for SCF calculation: 
        SCF reference function:  RHF  
  Maximum number of iterations:  150
     Full symmetry point group: CXv 
     Computational point group: C2v 
        Initial density matrix: MOREAD                 
     SCF convergence tolerance: 10**(-10)
  DIIS convergence acceleration:  ON
          Latest start for DIIS:   8
                     DIIS order:   6

  Memory information:    2523578 words required.
  Fock matrices are constructed from AO integral file.
 @GETMEM-I,  Allocated      19 MB of main memory.
  Initialization and symmetry analysis required      0.001 seconds.

  Adding electric field perturbation to one-electron Hamiltonian.
  Field direction     : Z
  Field strength      :  0.0002000 a.u.

  @INITGES-I, Occupancies from core Hamiltonian:

          Alpha population by irrep:   5    1    1    0
           Beta population by irrep:   5    1    1    0


 total no. of electrons in initial guess :  0.000000000000000E+000
  --------------------------------------------------------------------
  Iteration         Total Energy            Largest Density Difference
  --------------------------------------------------------------------
       0            14.615104889619895              0.0000000000D+00
   current occupation vector 
     5  1  1  0
     5  1  1  0
       1           -93.730815676748477              0.1756388831D+02
   current occupation vector 
     5  1  1  0
     5  1  1  0
       2           -97.652639738136230              0.1756388154D+02
   current occupation vector 
     5  1  1  0
     5  1  1  0
       3           -99.840884069518452              0.6970707667D+01
   current occupation vector 
     5  1  1  0
     5  1  1  0
       4           -94.323565512437511              0.6968965338D+01
   current occupation vector 
     5  1  1  0
     5  1  1  0
       5           -99.854806541902803              0.7065320877D+01
   current occupation vector 
     5  1  1  0
     5  1  1  0
       6           -94.223869756186190              0.7065373761D+01
   current occupation vector 
     5  1  1  0
     5  1  1  0
       7           -99.852071632912555              0.7069588674D+01
   current occupation vector 
     5  1  1  0
     5  1  1  0
       8           -94.221517827307864              0.7069591433D+01
   current occupation vector 
     5  1  1  0
     5  1  1  0
       9          -106.974125546450125              0.6087957732D+01
   current occupation vector 
     5  1  1  0
     5  1  1  0
      10          -110.537568516833844              0.1322538497D+01
   current occupation vector 
     5  1  1  0
     5  1  1  0
      11          -112.220585669799192              0.9924667618D+00
   current occupation vector 
     5  1  1  0
     5  1  1  0
      12          -112.372475962531453              0.6648378614D+00
   current occupation vector 
     5  1  1  0
     5  1  1  0
      13          -112.437927613641378              0.1514152719D+00
   current occupation vector 
     5  1  1  0
     5  1  1  0
      14          -112.455476267189368              0.1239275889D+00
   current occupation vector 
     5  1  1  0
     5  1  1  0
      15          -112.456917531656416              0.4728351182D-01
   current occupation vector 
     5  1  1  0
     5  1  1  0
      16          -112.458504542874763              0.7786680219D-01
   current occupation vector 
     5  1  1  0
     5  1  1  0
      17          -112.459521236697157              0.7833470414D-01
   current occupation vector 
     5  1  1  0
     5  1  1  0
      18          -112.459742978745652              0.4793124259D-01
   current occupation vector 
     5  1  1  0
     5  1  1  0
      19          -112.459744777734471              0.2446571296D-02
   current occupation vector 
     5  1  1  0
     5  1  1  0
      20          -112.459744887613383              0.1440524611D-02
   current occupation vector 
     5  1  1  0
     5  1  1  0
      21          -112.459744893003133              0.3647558083D-03
   current occupation vector 
     5  1  1  0
     5  1  1  0
      22          -112.459744894020687              0.1187493378D-03
   current occupation vector 
     5  1  1  0
     5  1  1  0
      23          -112.459744894022208              0.5868527224D-05
   current occupation vector 
     5  1  1  0
     5  1  1  0
      24          -112.459744894022251              0.5944423747D-06
   current occupation vector 
     5  1  1  0
     5  1  1  0
      25          -112.459744894022450              0.8609698732D-07
   current occupation vector 
     5  1  1  0
     5  1  1  0
      26          -112.459744894022066              0.4849880209D-07
   current occupation vector 
     5  1  1  0
     5  1  1  0
      27          -112.459744894021938              0.4532580444D-07
   current occupation vector 
     5  1  1  0
     5  1  1  0
      28          -112.459744894022663              0.1475158817D-07
   current occupation vector 
     5  1  1  0
     5  1  1  0
      29          -112.459744894022251              0.3441114060D-09
   current occupation vector 
     5  1  1  0
     5  1  1  0
      30          -112.459744894022890              0.7067693097D-09
   current occupation vector 
     5  1  1  0
     5  1  1  0

  SCF has converged.

 Density matrix saved to file den.dat
 total electron number:   13.9999999999997     
     E(SCF)=      -112.459744894021625              0.7707789962D-10

  Eigenvector printing suppressed.

 @PUTMOS-I, Writing converged MOs to NEWMOS. 
 @PUTMOS-I, Symmetry   1 Full Blocks 21 Partial Blocksize   2
 @PUTMOS-I, Symmetry   2 Full Blocks 13 Partial Blocksize   0
 @PUTMOS-I, Symmetry   3 Full Blocks 13 Partial Blocksize   0
 @PUTMOS-I, Symmetry   4 Full Blocks  7 Partial Blocksize   0
 @PUTFOCK-I, Writing converged Fock matrix to NEWFOCK. 
 @PUTFOCK-I, Symmetry   1 Full Blocks 21 Partial Blocksize   2
 @PUTFOCK-I, Symmetry   2 Full Blocks 13 Partial Blocksize   0
 @PUTFOCK-I, Symmetry   3 Full Blocks 13 Partial Blocksize   0
 @PUTFOCK-I, Symmetry   4 Full Blocks  7 Partial Blocksize   0


 
  ORBITAL EIGENVALUES (ALPHA)  (1H = 27.2113834 eV)

       MO #        E(hartree)               E(eV)           FULLSYM    COMPSYM
       ----   --------------------   --------------------   -------   ---------
    1     1         -20.6283371980        -561.3255923989     SG+        A1 (1)
    2     2         -11.5361510312        -313.9146286706     SG+        A1 (1)
    3     3          -1.2340856606         -33.5811780601     SG+        A1 (1)
    4     4          -0.8132341182         -22.1292253855     SG+        A1 (1)
    5     5          -0.4968916471         -13.5211091181     SG+        A1 (1)
    6   139          -0.4794725865         -13.0471123816      PI        B2 (3)
    7    87          -0.4794725865         -13.0471123816      PI        B1 (2)
  +++++++++++++++++++++++++++++++++++++++++++++++++++++++++++++++++++++++++++++
    8   140          -0.0248952268          -0.6774335613      PI        B2 (3)
    9    88          -0.0248952268          -0.6774335613      PI        B1 (2)
   10     6           0.0578161323           1.5732569441     SG+        A1 (1)
   11     7           0.0686276210           1.8674525062     SG+        A1 (1)
   12    89           0.0811770800           2.2089406480      PI        B1 (2)
   13   141           0.0811770800           2.2089406480      PI        B2 (3)
   14     8           0.1524665698           4.1488262853     SG+        A1 (1)
   15     9           0.1653320246           4.4989131094     SG+        A1 (1)
   16    90           0.1832328205           4.9860185311      PI        B1 (2)
   17   142           0.1832328205           4.9860185311      PI        B2 (3)
   18   191           0.2197574677           5.9799047089      DE        A2 (4)
   19    10           0.2197574677           5.9799047089      DE        A1 (1)
   20    91           0.2798333477           7.6146525128      PI        B1 (2)
   21   143           0.2798333477           7.6146525128      PI        B2 (3)
   22    11           0.2882477996           7.8436213891     SG+        A1 (1)
   23    12           0.3050482633           8.3007852486     SG+        A1 (1)
   24    13           0.4092021891          11.1349576565     SG+        A1 (1)
   25    92           0.4100698536          11.1585680078      PI        B1 (2)
   26   144           0.4100698536          11.1585680078      PI        B2 (3)
   27    14           0.5159563830          14.0398869553     SG+        A1 (1)
   28   192           0.5506435448          14.9837726135      DE        A2 (4)
   29    15           0.5506435448          14.9837726135      DE        A1 (1)
   30    93           0.6238711065          16.9763958713      PI        B1 (2)
   31   145           0.6238711065          16.9763958713      PI        B2 (3)
   32    16           0.6971818286          18.9712820365     SG+        A1 (1)
   33    94           0.7249649415          19.7272989739      PH        B1 (2)
   34   146           0.7249649415          19.7272989739      PH        B2 (3)
   35   193           0.7311537487          19.8957049814      DE        A2 (4)
   36    17           0.7311537487          19.8957049814      DE        A1 (1)
   37    95           0.7674237991          20.8826632281      PI        B1 (2)
   38   147           0.7674237991          20.8826632281      PI        B2 (3)
   39    18           0.8063932010          21.9430745631     SG+        A1 (1)
   40   194           0.8469700675          23.0472272343      DE        A2 (4)
   41    19           0.8469700675          23.0472272343      DE        A1 (1)
   42   148           0.8624816864          23.4693198435      PI        B2 (3)
   43    96           0.8624816864          23.4693198435      PI        B1 (2)
   44    20           0.9074406223          24.6927146869     SG+        A1 (1)
   45    97           1.0570289390          28.7632197245      PI        B1 (2)
   46   149           1.0570289390          28.7632197245      PI        B2 (3)
   47    21           1.1515769094          31.3360007972     SG+        A1 (1)
   48    22           1.3208789841          35.9429444600     SG+        A1 (1)
   49    98           1.4182980153          38.5938510707      PH        B1 (2)
   50   150           1.4182980153          38.5938510707      PH        B2 (3)
   51    99           1.4520814692          39.5131455861      PI        B1 (2)
   52   151           1.4520814692          39.5131455861      PI        B2 (3)
   53    23           1.5761400234          42.8889504689     SG+        A1 (1)
   54   195           1.5864995386          43.1708472101      DE        A2 (4)
   55    24           1.5864995386          43.1708472101      DE        A1 (1)
   56   100           1.6419208572          44.6789379583      PI        B1 (2)
   57   152           1.6419208572          44.6789379583      PI        B2 (3)
   58   196           1.6571941750          45.0945460644      DE        A2 (4)
   59    25           1.6571941750          45.0945460644      DE        A1 (1)
   60    26           1.8615202698          50.6545417675     SG+        A1 (1)
   61    27           1.9222822582          52.3079595312     SG+        A1 (1)
   62   101           2.0146882916          54.8224555349      PI        B1 (2)
   63   153           2.0146882916          54.8224555349      PI        B2 (3)
   64    28           2.0553422610          55.9287062828      PI        A1 (1)
   65   197           2.0553422610          55.9287062828      PI        A2 (4)
   66   198           2.1129598040          57.4965593342      DE        A2 (4)
   67    29           2.1129598040          57.4965593342      DE        A1 (1)
   68   102           2.1640693161          58.8873198639      PH        B1 (2)
   69   154           2.1640693161          58.8873198639      PH        B2 (3)
   70   103           2.1952194917          59.7349592345      PH        B1 (2)
   71   155           2.1952194917          59.7349592345      PH        B2 (3)
   72   104           2.1988343615          59.8333248431      PI        B1 (2)
   73   156           2.1988343615          59.8333248431      PI        B2 (3)
   74    30           2.2205250430          60.4235582950     SG+        A1 (1)
   75    31           2.2660040636          61.6611053608      DE        A1 (1)
   76   199           2.2660040636          61.6611053608      DE        A2 (4)
   77    32           2.3535565389          64.0435293323     SG+        A1 (1)
   78   105           2.4623071394          67.0027836185      PI        B1 (2)
   79   157           2.4623071394          67.0027836185      PI        B2 (3)
   80   200           2.5444340408          69.2375702213      DE        A2 (4)
   81    33           2.5444340408          69.2375702213      DE        A1 (1)
   82   106           2.6451182120          71.9773258038      PI        B1 (2)
   83   158           2.6451182120          71.9773258039      PI        B2 (3)
   84    34           2.6484724100          72.0685981726     SG+        A1 (1)
   85    35           2.7947919258          76.0501546161     SG+        A1 (1)
   86   107           3.2446663896          88.2918611332      PI        B1 (2)
   87   159           3.2446663896          88.2918611332      PI        B2 (3)
   88   201           3.7230265311         101.3087023458      PI        A2 (4)
   89    36           3.7230265311         101.3087023458      PI        A1 (1)
   90    37           3.7785342251         102.8191434889     SG+        A1 (1)
   91   108           3.8557434957         104.9201145532      PH        B1 (2)
   92   160           3.8557434957         104.9201145532      PH        B2 (3)
   93    38           4.0560582695         110.3709566652     SG+        A1 (1)
   94    39           4.1267348307         112.2941636672      DE        A1 (1)
   95   202           4.1267348307         112.2941636672      DE        A2 (4)
   96   109           4.1372996795         112.5816478208      PI        B1 (2)
   97   161           4.1372996795         112.5816478208      PI        B2 (3)
   98   110           4.1532396696         113.0153970013      PH        B1 (2)
   99   162           4.1532396696         113.0153970013      PH        B2 (3)
  100    40           4.3032189698         117.0965412407     SG+        A1 (1)
  101   203           4.3127939710         117.3570902713      DE        A2 (4)
  102    41           4.3127939710         117.3570902713      DE        A1 (1)
  103   111           4.4631479458         121.4484299247      PI        B1 (2)
  104   163           4.4631479458         121.4484299247      PI        B2 (3)
  105   204           4.5597491809         124.0770831692      DE        A2 (4)
  106    42           4.5597491809         124.0770831692      DE        A1 (1)
  107    43           4.8675862001         132.4537543240     SG+        A1 (1)
  108   164           5.0000695359         136.0588091675      PI        B2 (3)
  109   112           5.0000695359         136.0588091675      PI        B1 (2)
  110    44           5.0725518955         138.0311544444     SG+        A1 (1)
  111   165           5.3542916657         145.6976833516      PI        B2 (3)
  112   113           5.3542916657         145.6976833516      PI        B1 (2)
  113    45           5.8056344973         157.9793461870      PI        A1 (1)
  114   205           5.8056344973         157.9793461870      PI        A2 (4)
  115   114           5.8769442214         159.9197824303      PH        B1 (2)
  116   166           5.8769442214         159.9197824303      PH        B2 (3)
  117    46           5.9261344908         161.2583177102     SG+        A1 (1)
  118   206           6.0266066010         163.9923028195      DE        A2 (4)
  119    47           6.0266066010         163.9923028195      DE        A1 (1)
  120   167           6.0963792665         165.8909135730      PI        B2 (3)
  121   115           6.0963792665         165.8909135730      PI        B1 (2)
  122    48           6.1282709697         166.7587309366     SG+        A1 (1)
  123   207           6.2373457773         169.7268073439      DE        A2 (4)
  124    49           6.2373457773         169.7268073439      DE        A1 (1)
  125   116           6.3297855485         172.2422214012      PH        B1 (2)
  126   168           6.3297855485         172.2422214012      PH        B2 (3)
  127   208           6.4575068028         175.7176934193      DE        A2 (4)
  128    50           6.4575068028         175.7176934193      DE        A1 (1)
  129   117           6.6736074364         181.5980906135      PI        B1 (2)
  130   169           6.6736074364         181.5980906135      PI        B2 (3)
  131   118           6.9495259755         189.1062157689      PI        B1 (2)
  132   170           6.9495259755         189.1062157689      PI        B2 (3)
  133    51           7.0398131082         191.5630535517     SG+        A1 (1)
  134    52           7.4014512034         201.4037264125     SG+        A1 (1)
  135    53           9.2737162479         252.3506483649     SG+        A1 (1)
  136   171           9.5825284036         260.7538543315      PI        B2 (3)
  137   119           9.5825284036         260.7538543317      PI        B1 (2)
  138    54          10.6419066412         289.5810017209     SG+        A1 (1)
  139   209          10.6846293348         290.7435453149      PI        A2 (4)
  140    55          10.6846293348         290.7435453149      PI        A1 (1)
  141   172          10.7241653902         291.8193760774      PH        B2 (3)
  142   120          10.7241653902         291.8193760774      PH        B1 (2)
  143   210          10.9124668739         296.9433199448      DE        A2 (4)
  144    56          10.9124668739         296.9433199448      DE        A1 (1)
  145   121          11.0015408250         299.3671453786      PI        B1 (2)
  146   173          11.0015408250         299.3671453786      PI        B2 (3)
  147    57          11.0911321701         301.8050498198     SG+        A1 (1)
  148   174          11.9190829186         324.3347350756      PH        B2 (3)
  149   122          11.9190829186         324.3347350756      PH        B1 (2)
  150   211          11.9730058080         325.8020514915      DE        A2 (4)
  151    58          11.9730058080         325.8020514916      DE        A1 (1)
  152   123          12.1665352982         331.0682566496      PI        B1 (2)
  153   175          12.1665352982         331.0682566497      PI        B2 (3)
  154    59          12.4519109298         338.8337223747     SG+        A1 (1)
  155    60          12.7246092153         346.2542199734      DE        A1 (1)
  156   212          12.7246092153         346.2542199734      DE        A2 (4)
  157   124          13.0859117243         356.0857610691      PI        B1 (2)
  158   176          13.0859117243         356.0857610691      PI        B2 (3)
  159    61          13.3069023522         362.0992217712     SG+        A1 (1)
  160    62          17.1588660405         466.9164825374     SG+        A1 (1)
  161   177          18.6532224989         507.5799890630      PI        B2 (3)
  162   125          18.6532224989         507.5799890632      PI        B1 (2)
  163    63          19.3490597145         526.5146823209     SG+        A1 (1)
  164   213          26.2298763182         713.7512210280      DE        A2 (4)
  165    64          26.2298763182         713.7512210280      DE        A1 (1)
  166   178          26.4297600863         719.1903348796      PI        B2 (3)
  167   126          26.4297600863         719.1903348796      PI        B1 (2)
  168    65          26.8323207005         730.1445660918     SG+        A1 (1)
  169   179          33.3236926626         906.7837773451      PI        B2 (3)
  170   127          33.3236926626         906.7837773458      PI        B1 (2)
  171    66          34.1101757709         928.1850707420     SG+        A1 (1)
  172    67          35.4898949040         965.7291370588     SG+        A1 (1)
  173    68          47.0852466132        1281.2546980747      DE        A1 (1)
  174   214          47.0852466132        1281.2546980748      DE        A2 (4)
  175   128          47.2580203499        1285.9561104664      PI        B1 (2)
  176   180          47.2580203499        1285.9561104664      PI        B2 (3)
  177    69          47.3899873490        1289.5471150759     SG+        A1 (1)
  178    70          63.6155279274        1731.0665206267     SG+        A1 (1)
  179   181          66.2508639459        1802.7776594142      PI        B2 (3)
  180   129          66.2508639459        1802.7776594144      PI        B1 (2)
  181    71          66.7730869328        1816.9880693310     SG+        A1 (1)
  182   130          98.4904038957        2680.0601416258      PH        B1 (2)
  183   182          98.4904038957        2680.0601416259      PH        B2 (3)
  184   215          98.5060638364        2680.4862702768      DE        A2 (4)
  185    72          98.5060638364        2680.4862702769      DE        A1 (1)
  186   131          98.5203943178        2680.8762225006      PI        B1 (2)
  187   183          98.5203943178        2680.8762225006      PI        B2 (3)
  188    73          98.5268728908        2681.0525134354     SG+        A1 (1)
  189   216         103.3251970693        2811.6215523333      DE        A2 (4)
  190    74         103.3251970693        2811.6215523343      DE        A1 (1)
  191   132         103.3315183293        2811.7935625614      PI        B1 (2)
  192   184         103.3315183293        2811.7935625614      PI        B2 (3)
  193   133         103.3377628814        2811.9634854643      PH        B1 (2)
  194   185         103.3377628814        2811.9634854643      PH        B2 (3)
  195    75         103.3433313987        2812.1150125220     SG+        A1 (1)
  196   217         114.9395740459        3127.6648171953      DE        A2 (4)
  197    76         114.9395740459        3127.6648171953      DE        A1 (1)
  198   186         115.0375773882        3130.3316237166      PI        B2 (3)
  199   134         115.0375773882        3130.3316237166      PI        B1 (2)
  200    77         115.2058555456        3134.9107051756     SG+        A1 (1)
  201   187         116.6483107758        3174.1619074814      PI        B2 (3)
  202   135         116.6483107758        3174.1619074820      PI        B1 (2)
  203    78         117.3160652988        3192.3324318242     SG+        A1 (1)
  204    79         121.7521209605        3313.0436432183     SG+        A1 (1)
  205    80         198.5704182860        5403.3757838775      DE        A1 (1)
  206   218         198.5704182860        5403.3757838775      DE        A2 (4)
  207   136         198.6643714080        5405.9323783020      PI        B1 (2)
  208   188         198.6643714080        5405.9323783022      PI        B2 (3)
  209    81         198.7347593957        5407.8477328235     SG+        A1 (1)
  210    82         216.1522513041        5881.8017830084     SG+        A1 (1)
  211   189         224.7419119566        6115.5383323001      PI        B2 (3)
  212   137         224.7419119566        6115.5383323003      PI        B1 (2)
  213    83         225.1538366284        6126.7473724761     SG+        A1 (1)
  214   190         395.2038064348       10754.0422980373      PI        B2 (3)
  215   138         395.2038064348       10754.0422980375      PI        B1 (2)
  216    84         395.7138522104       10767.9213491869     SG+        A1 (1)
  217    85         508.5110422100       13837.2889327089     SG+        A1 (1)
  218    86         894.9630754166       24353.1833740049     SG+        A1 (1)


  VSCF finished.

 @CHECKOUT-I, Total execution time (CPU/WALL):       41.79/      17.63 seconds.
--executable xvscf finished with status     0 in       17.68 seconds (walltime).
 --invoking executable--
/nfs/workspaces/public/cfour_mpi/bin/xvtran
 @GETMEM-I,  Allocated    3814 MB of main memory.
  Full RHF integral transformation
  Transformation of IIII integrals :
  1 pass through the AO integral file was required.
     4376943 AO integrals were read.
     8521341 MO integrals were written to HF2.
  Transformation of IIJJ integrals :
  1 pass through the AO integral file was required.
     9948265 AO integrals were read.
    14270470 MO integrals were written to HF2.
  Transformation of IJIJ integrals :
  1 pass through the AO integral file was required.
    18890118 AO integrals were read.
    26441852 MO integrals were written to HF2.
  Transformation of IJKL integrals :
  1 pass through the AO integral file was required.
    13942648 AO integrals were read.
    17914050 MO integrals were written to HF2.
  Summary of active molecular orbitals: 
------------------------------------------------------------------------
 
  Index      Eigenvalue    Symmetry    Index      Eigenvalue    Symmetry
------------------------------------------------------------------------
     1       -20.6283372        1       110         4.1372997        2
     2       -11.5361510        1       111         4.1532397        2
     3        -1.2340857        1       112         4.4631479        2
     4        -0.8132341        1       113         5.0000695        2
     5        -0.4968916        1       114         5.3542917        2
     6        -0.4794726        2       115         5.8769442        2
     7        -0.4794726        3       116         6.0963793        2
     8         0.0578161        1       117         6.3297855        2
     9         0.0686276        1       118         6.6736074        2
    10         0.1524666        1       119         6.9495260        2
    11         0.1653320        1       120         9.5825284        2
    12         0.2197575        1       121        10.7241654        2
    13         0.2882478        1       122        11.0015408        2
    14         0.3050483        1       123        11.9190829        2
    15         0.4092022        1       124        12.1665353        2
    16         0.5159564        1       125        13.0859117        2
    17         0.5506435        1       126        18.6532225        2
    18         0.6971818        1       127        26.4297601        2
    19         0.7311537        1       128        33.3236927        2
    20         0.8063932        1       129        47.2580203        2
    21         0.8469701        1       130        66.2508639        2
    22         0.9074406        1       131        98.4904039        2
    23         1.1515769        1       132        98.5203943        2
    24         1.3208790        1       133       103.3315183        2
    25         1.5761400        1       134       103.3377629        2
    26         1.5864995        1       135       115.0375774        2
    27         1.6571942        1       136       116.6483108        2
    28         1.8615203        1       137       198.6643714        2
    29         1.9222823        1       138       224.7419120        2
    30         2.0553423        1       139       395.2038064        2
    31         2.1129598        1       140        -0.0248952        3
    32         2.2205250        1       141         0.0811771        3
    33         2.2660041        1       142         0.1832328        3
    34         2.3535565        1       143         0.2798333        3
    35         2.5444340        1       144         0.4100699        3
    36         2.6484724        1       145         0.6238711        3
    37         2.7947919        1       146         0.7249649        3
    38         3.7230265        1       147         0.7674238        3
    39         3.7785342        1       148         0.8624817        3
    40         4.0560583        1       149         1.0570289        3
    41         4.1267348        1       150         1.4182980        3
    42         4.3032190        1       151         1.4520815        3
    43         4.3127940        1       152         1.6419209        3
    44         4.5597492        1       153         2.0146883        3
    45         4.8675862        1       154         2.1640693        3
    46         5.0725519        1       155         2.1952195        3
    47         5.8056345        1       156         2.1988344        3
    48         5.9261345        1       157         2.4623071        3
    49         6.0266066        1       158         2.6451182        3
    50         6.1282710        1       159         3.2446664        3
    51         6.2373458        1       160         3.8557435        3
    52         6.4575068        1       161         4.1372997        3
    53         7.0398131        1       162         4.1532397        3
    54         7.4014512        1       163         4.4631479        3
    55         9.2737162        1       164         5.0000695        3
    56        10.6419066        1       165         5.3542917        3
    57        10.6846293        1       166         5.8769442        3
    58        10.9124669        1       167         6.0963793        3
    59        11.0911322        1       168         6.3297855        3
    60        11.9730058        1       169         6.6736074        3
    61        12.4519109        1       170         6.9495260        3
    62        12.7246092        1       171         9.5825284        3
    63        13.3069024        1       172        10.7241654        3
    64        17.1588660        1       173        11.0015408        3
    65        19.3490597        1       174        11.9190829        3
    66        26.2298763        1       175        12.1665353        3
    67        26.8323207        1       176        13.0859117        3
    68        34.1101758        1       177        18.6532225        3
    69        35.4898949        1       178        26.4297601        3
    70        47.0852466        1       179        33.3236927        3
    71        47.3899873        1       180        47.2580203        3
    72        63.6155279        1       181        66.2508639        3
    73        66.7730869        1       182        98.4904039        3
    74        98.5060638        1       183        98.5203943        3
    75        98.5268729        1       184       103.3315183        3
    76       103.3251971        1       185       103.3377629        3
    77       103.3433314        1       186       115.0375774        3
    78       114.9395740        1       187       116.6483108        3
    79       115.2058555        1       188       198.6643714        3
    80       117.3160653        1       189       224.7419120        3
    81       121.7521210        1       190       395.2038064        3
    82       198.5704183        1       191         0.2197575        4
    83       198.7347594        1       192         0.5506435        4
    84       216.1522513        1       193         0.7311537        4
    85       225.1538366        1       194         0.8469701        4
    86       395.7138522        1       195         1.5864995        4
    87       508.5110422        1       196         1.6571942        4
    88       894.9630754        1       197         2.0553423        4
    89        -0.0248952        2       198         2.1129598        4
    90         0.0811771        2       199         2.2660041        4
    91         0.1832328        2       200         2.5444340        4
    92         0.2798333        2       201         3.7230265        4
    93         0.4100699        2       202         4.1267348        4
    94         0.6238711        2       203         4.3127940        4
    95         0.7249649        2       204         4.5597492        4
    96         0.7674238        2       205         5.8056345        4
    97         0.8624817        2       206         6.0266066        4
    98         1.0570289        2       207         6.2373458        4
    99         1.4182980        2       208         6.4575068        4
   100         1.4520815        2       209        10.6846293        4
   101         1.6419209        2       210        10.9124669        4
   102         2.0146883        2       211        11.9730058        4
   103         2.1640693        2       212        12.7246092        4
   104         2.1952195        2       213        26.2298763        4
   105         2.1988344        2       214        47.0852466        4
   106         2.4623071        2       215        98.5060638        4
   107         2.6451182        2       216       103.3251971        4
   108         3.2446664        2       217       114.9395740        4
   109         3.8557435        2       218       198.5704183        4
------------------------------------------------------------------------
  -20.6283371979853       -11.5361510312129       -1.23408566064023     
 -0.813234118242769      -0.496891647123945      -0.479472586522068     
 -0.479472586522087       5.781613234907555E-002  6.862762097734817E-002
  0.152466569756480       0.165332024589336       0.219757467712502     
  0.288247799599376       0.305048263314467       0.409202189128491     
  0.515956382994158       0.550643544772367       0.697181828562691     
  0.731153748741774       0.806393200983063       0.846970067472423     
  0.907440622326969        1.15157690943482        1.32087898405109     
   1.57614002340204        1.58649953864853        1.65719417500787     
   1.86152026976519        1.92228225821176        2.05534226101693     
   2.11295980395603        2.22052504302135        2.26600406360808     
   2.35355653885313        2.54443404083886        2.64847240999188     
   2.79479192579736        3.72302653108849        3.77853422508737     
   4.05605826953946        4.12673483066005        4.30321896977325     
   4.31279397104358        4.55974918089490        4.86758620011785     
   5.07255189548443        5.80563449732449        5.92613449084002     
[...]
 Convergence information after    20 iterations: 
 Largest element of residual vector : -0.19748886E-06.
 Largest element of DIIS residual   : -0.10308817E-06.
 Convergence information after    21 iterations: 
 Largest element of residual vector :  0.11540344E-06.
 Largest element of DIIS residual   :  0.52173473E-07.
 Perturbed amplitude equations converged in    21 iterations.
  Dominant contributions to perturbed wavefunction:
    7    0   46    0   0.2890304843 AA  
    7    0   22    0   0.2528274305 AA  
    7    7  140   22  -0.2226866541 ABAB
    7    7   22  140  -0.2226866541 ABAB
    7    0   36    0   0.2223591256 AA  
    7    0   28    0   0.2078997986 AA  
    7    7  140   46  -0.2068077665 ABAB
    7    7   46  140  -0.2068077665 ABAB
    7    0   32    0   0.2018786681 AA  
    7    7  140   32  -0.1875593414 ABAB
    7    7   32  140  -0.1875593414 ABAB
    7    0   25    0   0.1843275209 AA  
    7    0   54    0  -0.1823926320 AA  
    7    0   16    0  -0.1791245564 AA  
    7    0   56    0   0.1735827164 AA  
    7    0   39    0   0.1683624938 AA  
    7    0   24    0   0.1657440659 AA  
    7    7  140   36  -0.1539017909 ABAB
    7    7   36  140  -0.1539017909 ABAB
    7    7  140   28  -0.1493525941 ABAB
  norm of converged amps    1.56954657229010     
 Starting iterative solution of the perturbed Lambda equations.
 The DIIS procedure is used to accelerate convergence.
 Convergence criterion is 10**(-7).
 Maximum number of iterations is 100.
 Convergence information after     1 iterations: 
 Largest element of residual vector :  0.76755889E-01.
 Largest element of DIIS residual   :  0.76755889E-01.
 Convergence information after     2 iterations: 
 Largest element of residual vector :  0.19530292E-01.
 Largest element of DIIS residual   :  0.14810425E-01.
 Convergence information after     3 iterations: 
 Largest element of residual vector :  0.65707347E-02.
 Largest element of DIIS residual   :  0.56512023E-02.
 Convergence information after     4 iterations: 
 Largest element of residual vector :  0.30980073E-02.
 Largest element of DIIS residual   :  0.29553196E-02.
 Convergence information after     5 iterations: 
 Largest element of residual vector :  0.30776563E-02.
 Largest element of DIIS residual   :  0.27168666E-02.
 Convergence information after     6 iterations: 
 Largest element of residual vector :  0.18521516E-02.
 Largest element of DIIS residual   :  0.92495588E-03.
 Convergence information after     7 iterations: 
 Largest element of residual vector :  0.10120663E-02.
 Largest element of DIIS residual   :  0.49710186E-03.
 Convergence information after     8 iterations: 
 Largest element of residual vector :  0.38302061E-03.
 Largest element of DIIS residual   :  0.19038387E-03.
 Convergence information after     9 iterations: 
 Largest element of residual vector :  0.16313242E-03.
 Largest element of DIIS residual   :  0.96767585E-04.
 Convergence information after    10 iterations: 
 Largest element of residual vector :  0.11196102E-03.
 Largest element of DIIS residual   : -0.77891548E-04.
 Convergence information after    11 iterations: 
 Largest element of residual vector : -0.43455257E-04.
 Largest element of DIIS residual   : -0.18638250E-04.
 Convergence information after    12 iterations: 
 Largest element of residual vector :  0.24609274E-04.
 Largest element of DIIS residual   :  0.12685312E-04.
 Convergence information after    13 iterations: 
 Largest element of residual vector :  0.68442452E-05.
 Largest element of DIIS residual   :  0.53968382E-05.
 Convergence information after    14 iterations: 
 Largest element of residual vector :  0.67308062E-05.
 Largest element of DIIS residual   :  0.33844725E-05.
 Convergence information after    15 iterations: 
 Largest element of residual vector :  0.37321844E-05.
 Largest element of DIIS residual   :  0.18546047E-05.
 Convergence information after    16 iterations: 
 Largest element of residual vector :  0.15209934E-05.
 Largest element of DIIS residual   :  0.42785939E-06.
 Convergence information after    17 iterations: 
 Largest element of residual vector :  0.81928707E-06.
 Largest element of DIIS residual   :  0.39199663E-06.
 Convergence information after    18 iterations: 
 Largest element of residual vector :  0.18196146E-06.
 Largest element of DIIS residual   : -0.14626805E-06.
 Convergence information after    19 iterations: 
 Largest element of residual vector :  0.16385421E-06.
 Largest element of DIIS residual   :  0.74366489E-07.
 Perturbed Lambda equations converged in    19 iterations.
  Dominant contributions to perturbed wavefunction:
    7    7  140   22  -0.1559014766 ABAB
    7    7   22  140  -0.1559014766 ABAB
    7    7  140   46  -0.1398384955 ABAB
    7    7   46  140  -0.1398384955 ABAB
    7    7  140   32  -0.1321672442 ABAB
    7    7   32  140  -0.1321672442 ABAB
    7    7  140   36  -0.1039222251 ABAB
    7    7   36  140  -0.1039222251 ABAB
    7    7  140   28  -0.1012285683 ABAB
    7    7   28  140  -0.1012285683 ABAB
    7    7  140   56  -0.1010230508 ABAB
    7    7   56  140  -0.1010230508 ABAB
    7    7  140   39  -0.0990410875 ABAB
    7    7   39  140  -0.0990410875 ABAB
    7    6   22   89  -0.0979788621 ABAB
    6    7   89   22  -0.0979788621 ABAB
    7    7  140   45  -0.0975074612 ABAB
    7    7   45  140  -0.0975074612 ABAB
    7    7  140   16   0.0970353020 ABAB
    7    7   16  140   0.0970353020 ABAB
        The DBOC first-order density matrix is being calculated 
             (Symmetry block 3, perturbation   2)
 term   2.57405673291440     
 final tnorm  0.684502093926098     
  norm contr. I: |<0|L dT/dx|0>|^2   0.000000000000000E+000
  norm contr. II: <0|[nabla(1+L)e-T][nabla e^T]|0>   2.57405673291440     
  total norm contribution   2.57405673291440     
 oo  1.123904825434338E-002
 vv  -17.0861632161648     
 vo -1.791388092552696E-003
  Correlated perturbed 1-el contribution to DBOC  -17.0767155560030       cm**-1
  SUM_I |dc_I/dx|^2 contribution to DBOC   8.61124620598165       cm**-1
 
 
  The total diagonal Born-Oppenheimer correction (DBOC) is:      0.0038672468 a.u.
  The total diagonal Born-Oppenheimer correction (DBOC) is:        848.762569 cm-1
 
 Total CC energy including DBOC  -113.014798085351     
 First-order density matrix is being calculated  (Symmetry block 3, perturbation   2)
 Calculation of the contributions of <pq||rs> to dI(i,j)/dx required   1.9 seconds.
 Calculation of the contributions of <pq||rs> to dI(a,b)/dx required  15.3 seconds.
 Calculation of the contributions of <pq||rs> to dI(i,a)/dx required   9.2 seconds.
 First-order Z-vector equations are solved for 1 perturbation.
 Convergence reached after  20 iterations.
        U*G(pq,rs) contribution is being calculated
             (Symmetry block 3, perturbation   2)

 CCSD contribution to force constants 

        0.0000000000        0.0000000000        0.0000000000
        0.0000000000        0.0000000000        0.0000000000
        0.0000000000        0.0000000000        0.0000000000
        0.0000000000        0.0000000000        0.0000000000
        0.0000000000        0.0000000000        0.0000000000
        0.0000000000        0.0000000000        0.0000000000
        0.0000000000        0.0000000000        0.0000000000
        0.0000000000        0.0000000000        0.0000000000
        0.0000000000        0.0000000000        0.0000000000
        0.0000000000        0.0000000000        0.0000000000
        0.0000000000        0.0000000000        0.0000000000
        0.0000000000       -9.8224900644        9.8224900644

 CCSD contribution to dipole derivatives 

        0.0000000000        0.0000000000        0.0000000000
        0.0000000000        0.0000000000        0.0000000000
        0.0000000000        0.0000000000        0.0000000000
        0.0000000000        0.0000000000       -0.0559185155
        0.0000000000        0.0000000000        0.0000000000
        0.0000000000        0.0000000000        0.0000000000
 @CHECKOUT-I, Total execution time (CPU/WALL):     1238.52/     432.28 seconds.
--executable xsdcc finished with status     0 in      432.57 seconds (walltime).
 --invoking executable--
/nfs/workspaces/public/cfour_mpi/bin/xanti
 @GETMEM-I,  Allocated    3814 MB of main memory.
 CCSD MO derivative gammas will be sorted to Mulliken order.
 @CHECKOUT-I, Total execution time (CPU/WALL):       14.24/      30.31 seconds.
--executable xanti finished with status     0 in       30.49 seconds (walltime).
 --invoking executable--
/nfs/workspaces/public/cfour_mpi/bin/xbcktrn
 @GETMEM-I,  Allocated    3814 MB of main memory.
 CCSD MO derivative gammas will be transformed to the AO basis.
 @CHECKOUT-I, Total execution time (CPU/WALL):       46.46/      17.90 seconds.
--executable xbcktrn finished with status     0 in       17.97 seconds (walltime).
 --invoking executable--
/nfs/workspaces/public/cfour_mpi/bin/xvdint
 @GETMEM-I,  Allocated    3814 MB of main memory.
 One- and two-electron integral derivatives are calculated
 for RHF-CC/MBPT hessians and dipole derivatives.
 Spherical gaussians are used.
  magnet F F
                    8722  records have been written to the Sort file.
  Total length of Sort file :             178609116  words.
 Evaluation of 2el integral derivatives

                      Two-electron integral gradient
                      ------------------------------

                         C #1 z     0.0000000000
                         O #2 z     0.0000000000


 C #1       0.0000000000            0.0714350085            0.0000000000
 O #2       0.0000000000           -0.0714350085            0.0000000000


 Evaluation of 2e integral derivatives required  448.10 seconds.
  contribution to Hessian
        0.0000000000        0.0000000000        0.0000000000
        0.0000000000        0.0714350085       -0.0714350085
 @CHECKOUT-I, Total execution time (CPU/WALL):      448.09/     127.26 seconds.
--executable xvdint finished with status     0 in      127.58 seconds (walltime).
 --invoking executable--
/nfs/workspaces/public/cfour_mpi/bin/xanti
 @GETMEM-I,  Allocated    3814 MB of main memory.
 CCSD MO gammas will be sorted to Mulliken order.
 @CHECKOUT-I, Total execution time (CPU/WALL):       16.94/      57.02 seconds.
--executable xanti finished with status     0 in       57.21 seconds (walltime).
 --invoking executable--
/nfs/workspaces/public/cfour_mpi/bin/xbcktrn
 @GETMEM-I,  Allocated    3814 MB of main memory.
 CCSD MO gammas will be transformed to the AO basis.
 @CHECKOUT-I, Total execution time (CPU/WALL):       76.42/      26.51 seconds.
--executable xbcktrn finished with status     0 in       26.58 seconds (walltime).
 --invoking executable--
/nfs/workspaces/public/cfour_mpi/bin/xvdint
 @GETMEM-I,  Allocated    3814 MB of main memory.
 One- and two-electron integral derivatives are calculated
 for RHF-CC/MBPT hessians and dipole derivatives.
 Spherical gaussians are used.
  magnet F F

                     Kinetic energy integral gradient
                     --------------------------------

                         C #1 z    -0.3946820289
                         O #2 z     0.3946820289


 C #1       0.0000000000            0.0000000000           -0.3946820289
 O #2       0.0000000000            0.0000000000            0.3946820289



                   Nuclear attraction integral gradient
                   ------------------------------------

                         C #1 z    11.7987773927
                         O #2 z   -11.7987773927


 C #1       0.0000000000            0.0000000000           11.7987773927
 O #2       0.0000000000            0.0000000000          -11.7987773927



                      Reorthonormalization gradient
                      -----------------------------

                         C #1 z     0.0000000000
                         O #2 z     0.0000000000


 C #1       0.0000000000            0.0000000000            0.0000000000
 O #2       0.0000000000            0.0000000000            0.0000000000



                     Kinetic energy integral Hessian
                     -------------------------------


           Symmetry 1

           C #1 z      O #2 z

 C #1 z    0.419262
 O #2 z   -0.419262    0.419262


           Symmetry 2

           C #1 x      O #2 x

 C #1 x   -0.262995
 O #2 x    0.262995   -0.262995


           Symmetry 3

           C #1 y      O #2 y

 C #1 y   -0.262995
 O #2 y    0.262995   -0.262995




           C #1 x      C #1 y      C #1 z      O #2 x      O #2 y      O #2 z

 C #1 x   -0.262995
 C #1 y    0.000000   -0.262995
 C #1 z    0.000000    0.000000    0.419262

 O #2 x    0.262995    0.000000    0.000000   -0.262995
 O #2 y    0.000000    0.262995    0.000000    0.000000   -0.262995
 O #2 z    0.000000    0.000000   -0.419262    0.000000    0.000000    0.419262




                   Nuclear attraction integral Hessian
                   -----------------------------------


           Symmetry 1

           C #1 z      O #2 z

 C #1 z   -6.979870
 O #2 z    6.979870   -6.979870


           Symmetry 2

           C #1 x      O #2 x

 C #1 x    5.563915
 O #2 x   -5.563915    5.563915


           Symmetry 3

           C #1 y      O #2 y

 C #1 y    5.563915
 O #2 y   -5.563915    5.563915




           C #1 x      C #1 y      C #1 z      O #2 x      O #2 y      O #2 z

 C #1 x    5.563915
 C #1 y    0.000000    5.563915
 C #1 z    0.000000    0.000000   -6.979870

 O #2 x   -5.563915    0.000000    0.000000    5.563915
 O #2 y    0.000000   -5.563915    0.000000    0.000000    5.563915
 O #2 z    0.000000    0.000000    6.979870    0.000000    0.000000   -6.979870




                Highest order reorthonormalization Hessian
                ------------------------------------------


           Symmetry 1

           C #1 z      O #2 z

 C #1 z    0.000000
 O #2 z    0.000000    0.000000


           Symmetry 2

           C #1 x      O #2 x

 C #1 x    0.000000
 O #2 x    0.000000    0.000000


           Symmetry 3

           C #1 y      O #2 y

 C #1 y    0.000000
 O #2 y    0.000000    0.000000




           C #1 x      C #1 y      C #1 z      O #2 x      O #2 y      O #2 z




                Electronic contributions to dipole moment
                -----------------------------------------

                               au             Debye

                    z     -0.72470237     -1.84201001

  Conversion factor used: 1 a.u. =   2.54174691 Debye 



   Electronic contributions to static part of dipole moment derivatives
   --------------------------------------------------------------------


                     Total dipole moment derivatives
                     -------------------------------


           Symmetry 1
                              Ez

               C #1 z    -5.64040321
               O #2 z    -8.35959679

           Symmetry 2
                              Ex

               C #1 x    -5.68983262
               O #2 x    -8.31016738

           Symmetry 3
                              Ey

               C #1 y    -5.68983262
               O #2 y    -8.31016738



                       Ex          Ey          Ez

      C #1    x   -5.689833    0.000000    0.000000
      C #1    y    0.000000   -5.689833    0.000000
      C #1    z    0.000000    0.000000   -5.640403

      O #2    x   -8.310167    0.000000    0.000000
      O #2    y    0.000000   -8.310167    0.000000
      O #2    z    0.000000    0.000000   -8.359597

 Evaluation of 1e integral derivatives required    1.31 seconds.
                    8815  records have been written to the Sort file.
  Total length of Sort file :             180513570  words.
 Evaluation of 2el integral derivatives

                      Two-electron integral gradient
                      ------------------------------

                         C #1 z    -6.4451910649
                         O #2 z     6.4451910649


 C #1       0.0000000000            0.0000000000           -6.4451910649
 O #2       0.0000000000            0.0000000000            6.4451910649


 Evaluation of 2e integral derivatives required  741.19 seconds.

                            Molecular gradient
                            ------------------

                         C #1 z     0.5087174685
                         O #2 z    -0.5087174685


 C #1       0.0000000000            0.0000000000            0.5087174685
 O #2       0.0000000000            0.0000000000           -0.5087174685


  Molecular gradient norm 0.719E+00

                            Molecular hessian
                            -----------------


           Symmetry 1

           C #1 z      O #2 z

 C #1 z    8.054901
 O #2 z   -8.054901    8.054901


           Symmetry 2

           C #1 x      O #2 x

 C #1 x    9.977694
 O #2 x   -9.977694    9.977694


           Symmetry 3

           C #1 y      O #2 y

 C #1 y    9.977694
 O #2 y   -9.977694    9.977694




           C #1 x      C #1 y      C #1 z      O #2 x      O #2 y      O #2 z

 C #1 x    9.977694
 C #1 y    0.000000    9.977694
 C #1 z    0.000000    0.000000    8.054901

 O #2 x   -9.977694    0.000000    0.000000    9.977694
 O #2 y    0.000000   -9.977694    0.000000    0.000000    9.977694
 O #2 z    0.000000    0.000000   -8.054901    0.000000    0.000000    8.054901




                           Total dipole moment
                           -------------------

                               au             Debye

                    z      0.58846858      1.49573820

  Conversion factor used: 1 a.u. =   2.54174691 Debye 



                     Total dipole moment derivatives
                     -------------------------------


           Symmetry 1
                              Ez

               C #1 z     0.44229275
               O #2 z    -0.44229275

           Symmetry 2
                              Ex

               C #1 x     0.19198360
               O #2 x    -0.19198360

           Symmetry 3
                              Ey

               C #1 y     0.19198360
               O #2 y    -0.19198360



                       Ex          Ey          Ez

      C #1    x    0.191984    0.000000    0.000000
      C #1    y    0.000000    0.191984    0.000000
      C #1    z    0.000000    0.000000    0.442293

      O #2    x   -0.191984    0.000000    0.000000
      O #2    y    0.000000   -0.191984    0.000000
      O #2    z    0.000000    0.000000   -0.442293

 @CHECKOUT-I, Total execution time (CPU/WALL):      742.49/     194.91 seconds.
--executable xvdint finished with status     0 in      195.31 seconds (walltime).
 --invoking executable--
/nfs/workspaces/public/cfour_mpi/bin/xjoda
  @GTFLGS-I, Hessian will be transformed to curvilinear coordinates.
  @GTFLGS-I, Hessian will be transformed to curvilinear coordinates.
  igrd and ihes are                      0                     1
  gradient from JOBARC 
   0.000000000000000   0.000000000000000   0.508717468509750
   0.000000000000000   0.000000000000000  -0.508717468509750
 
  @PROJFCM-I, Projecting force constant matrix onto totally symmetric subspace.
  Largest difference between matrix elements of symmetrized
  and unsymmetrized FCM :     0.6039613254E-13.
  read isotopes from ZMAT file 
 
  Summary of diagonal Born-Oppenheimer correction at the correlated level
  The total diagonal Born-Oppenheimer correction (DBOC) is:      0.0038672468 a.u.
  The total diagonal Born-Oppenheimer correction (DBOC) is:        848.762569 cm-1
  The total diagonal Born-Oppenheimer correction (DBOC) is:            10.153 kJ/mole
  hellooooooo 
  readis is  F
 
 @CHECKOUT-I, Total execution time (CPU/WALL):        0.01/       0.06 seconds.
--executable xjoda finished with status     0 in        0.13 seconds (walltime).
  The final electronic energy is      -113.014798085351160 a.u. 
  This computation required                         5124.13 seconds (walltime).
