 --invoking executable--
/nfs/workspaces/public/cfour_mpi/bin/xjoda


   *************************************************************************
         <<<     CCCCCC     CCCCCC   |||     CCCCCC     CCCCCC   >>>
       <<<      CCC        CCC       |||    CCC        CCC         >>>
      <<<      CCC        CCC        |||   CCC        CCC            >>>
    <<<        CCC        CCC        |||   CCC        CCC              >>>
      <<<      CCC        CCC        |||   CCC        CCC            >>>
       <<<      CCC        CCC       |||    CCC        CCC         >>>
         <<<     CCCCCC     CCCCCC   |||     CCCCCC     CCCCCC   >>>
   *************************************************************************

     ****************************************************************
     * CFOUR Coupled-Cluster techniques for Computational Chemistry *
     ****************************************************************
 

   Department of Chemistry                Institut fuer Physikalische Chemie
   University of Florida                  Universitaet Mainz
   Gainesville, FL 32611, USA             D-55099 Mainz, Germany

   Department of Chemistry                Fakultaet fuer Chemie und Biowiss.
   Johns Hopkins University               Karlsruher Institut fuer Technologie
   Baltimore, MD 21218, USA               D-76131 Karlsruhe, Germany

   Department of Chemistry                Department of Physical Chemistry
   Southern Methodist University          Eotvos Lorand University
   Dallas, TX 75275, USA                  H-1053 Budapest, Hungary

 
                       Version 2.1
 
                     vincent.theory.phys.ucl.ac.uk                     
                     Mon  3 Mar 22:51:07 GMT 2025                      
                     integer*8 version is running
 
********************************************************************************
*                          Input from ZMAT file                                *
********************************************************************************
Carbon Monoxide DBOC calculation                                                
C                                                                               
O 1 r                                                                           
                                                                                
r=1.7689655172413794                                                            
                                                                                
                                                                                
*CFOUR(CALC=CCSD,BASIS=AUG-PCVQZ,SCF_CONV=10                                    
CC_CONV=14,DBOC=ON,MEMORY=500000000                                             
ZFIELD=200)                                                                     
                                                                                
%isotopes                                                                       
12                                                                              
18                                                                              
********************************************************************************
  @GTFLGS-I, Hessian will be transformed to curvilinear coordinates.
    -------------------------------------------------------------------
                    CFOUR Control Parameters 
    -------------------------------------------------------------------
        External           Internal           Value            Units
          Name               Name
    -------------------------------------------------------------------
       ABCDTYPE             IABCDT         STANDARD    [  0]    ***   
       ANHARMONIC           IANHAR         OFF         [  0]    ***   
       ANH_ALGORIT          IANALG         STANDARD    [  0]    ***   
       ANH_DERIVAT          IANDER         SECOND      [  1]    ***   
       ANH_MODE             ANHMOD         VIBRATION   [  0]    ***   
       ANH_STEPSIZ          ICUBST             50000          x 10-6  
       ANH_SYMMETR          IANHSM         ABELIAN     [  0]    ***   
       AO_LADDERS           IAOLAD         SINGLEPASS  [  1]    ***   
       AV_SCF               IAVSCF         OFF         [  0]    ***   
       BASIS                IBASIS         AUG-PCVQZ   [ 52]    ***   
       BOTHVECTORS          BOTHVC         OFF         [  0]    ***   
       BOX_POTENT           IPIAB          OFF         [  0]    ***   
       BREIT                IBREIT         OFF         [  0]    ***   
       BRUCK_CONV           IBRTOL          10D-  4             ***   
       BRUECKNER            IBRKNR         OFF         [  0]    ***   
       BUFFERSIZE           IBUFFS              4096            ***   
       CACHE_RECS           ICHREC             10               ***   
       CALCLEVEL            ICLLVL         CCSD        [ 10]    ***   
       CCORBOPT             ICCORB         OFF         [  0]  x 0.01  
       CC_CONV              ICCCNV          10D- 14             ***   
       CC_EXPORDER          ICCEOR              5               ***   
       CC_EXTRAPOL          ICCEXT         DIIS        [  1]    ***   
       CC_GUESS             ICCGES         MP2         [  0]    ***   
       CC_MAXCYC            ICCCYC            100              cycles 
       CC_PROGRAM           ICCPRO         VCC         [  0]    ***   
       CHARGE               ICHRGE              0               ***   
       CHOLESKY             ICHOLE         OFF         [  0]    ***   
       CIS_CONV             ICISTL              5               ***   
       COMM_SIZE            IPSIZE            ***               ***   
       CONSTANT             ICONST         OLD         [  1]    ***   
       CONTINUUM            ICONTU         NONE        [  0]    ***   
       CONTRACTION          ICNTYP         GENERAL     [  1]    ***   
       COORDINATES          ICOORD         INTERNAL    [  0]    ***   
       CPHF_CONVER          ICPHFT          10D- 16             ***   
       CPHF_MAXCYC          ICPHFC             64              cycles 
       CUBIC                ICUBIC         OFF         [  0]    ***   
       CURVILINEAR          ICURVY         ON          [  1]    ***   
       DBOC                 IDBOC          ON          [  1]    ***   
       DCT                  IDCT           OFF         [  0]    ***   
       DERIV_LEV            IDRLVL         SECOND      [  2]    ***   
       DEVMEM_SIZE          IDVMEM          50000000           MByte  
       DIAG_MRCC            IEOMST          10D-  0             ***   
       DIFF_TYPE            IDIFTY         RELAXED     [  0]    ***   
       DIRECT               IDIRCT         OFF         [  0]    ***   
       DROPMO               IDRPMO      NONE         
       ECP                  IECP           OFF         [  0]    ***   
       EIGENVECTOR          IVEC                1               ***   
       EL_ANHARM            IELANH         OFF         [  0]    ***   
       EOMFOLLOW            IEOMSR         ENERGY      [  0]    ***   
       EOMIP                IEOMIP         OFF         [  0]    ***   
       EOMLEVEL             HBARFM         SAME        [  0]    ***   
       EOM_MRCC             IMRCCE         NEW         [  1]    ***   
       EOM_NONIT            EOMNON         OFF         [  0]    ***   
       EOM_NSING            IEOMSI          10D-  0             ***   
       EOM_NSTATES          IMRCCD         DAVIDSON    [  0]    ***   
       EOM_NTRIP            IEOMTR          10D-  0             ***   
       EOM_ORDER            IEXORD         ENERGY      [  0]    ***   
       EOM_PROPSTA          IEOMST              0               ***   
       ESTATE_CONV          IEXTOL          10D-  5             ***   
       ESTATE_DIAG          IEXDIG         ITERATIVE   [  0]    ***   
       ESTATE_LOCK          IESLOC         ON          [  1]    ***   
       ESTATE_MAXC          IEXMXC             40               ***   
       ESTATE_PROP          IEXPRP         OFF         [  0]    ***   
       EVAL_HESS            IRECAL              0            # of cyc.
       EXCITATION           IEXCIT              0               ***   
       EXCITE               IEXCIT         NONE        [  0]    ***   
       EXTERN_POT           IEXPOT         OFF         [  0]    ***   
       FCGRADNEW            IFCGNW         OFF         [  0]    ***   
       FC_FIELD             IFINFC              0             x 10-6  
       FD_CALTYPE           IFDCAL         GRADONLY    [  0]    ***   
       FD_PROJECT           IFDPRJ         OFF         [  1]    ***   
       FD_STEPSIZE          IDISFD              0            10-4 bohr
       FD_USEGROUP          IFDGRP         FULL        [  0]    ***   
       FILE_RECSIZ          IFLREC              4096           words  
       FINITE_PERT          IFIPER              0             x 10-6  
       FIXGEOM              IFIXGM         OFF         [  0]    ***   
       FOCK                 IFOCK          AO          [  1]    ***   
       FREQ_ALGORI          IVIALG         STANDARD    [  0]    ***   
       FROZEN_CORE          IFROCO         OFF         [  0]    ***   
       GAMMA_ABCD           IGABCD         STORE       [  0]    ***   
       GAMMA_ABCI           IGABCI         STORE       [  0]    ***   
       GENBAS_1             IGNBS1              0               ***   
       GENBAS_2             IGNBS2              0               ***   
       GENBAS_3             IGNBS3              0               ***   
       GENBAS_4             IGNBS4              0               ***   
       GEO_CONV             ICONTL              5              H/bohr 
       GEO_MAXCYC           IOPTCY             50               ***   
       GEO_MAXSTEP          IMXSTP            300            millibohr
       GEO_METHOD           INR            SINGLE_POINT[  5]    ***   
       GIAO                 IGIAO          OFF         [  1]    ***   
       GIMIC                IGIMIC         OFF         [  0]    ***   
       GRID                 IGRID          OFF         [  0]    ***   
       GRID_ALGO            IGALGO         SERIAL      [  0]    ***   
       GUESS                IGUESS         MOREAD      [  0]    ***   
       HBAR                 IHBAR          OFF         [  0]    ***   
       HESS_TYPE            IHESTP         SCF         [  0]    ***   
       HF2_FILE             IHF2Fl         USE         [  1]    ***   
       HFSTABILITY          ISTABL         OFF         [  0]    ***   
       INCORE               INCORE         OFF         [  0]    ***   
       INPUT_MRCC           IMRCC          ON          [  1]    ***   
       INTEGRALS            INTTYP         VMOL        [  1]    ***   
       JODA_PRINT           IJPRNT              0               ***   
       KEYWORD_OUT          IDMPKW         NO          [  0]    ***   
       LINDEP_TOL           ILINDP              8               ***   
       LINEQ_CONV           IZTACN          10D-  7           cycles  
       LINEQ_EXPOR          ILMAXD              5               ***   
       LINEQ_MAXCY          ILMAXC            100               ***   
       LINEQ_TYPE           ILTYPE         DIIS        [  1]    ***   
       LOCK_ORBOCC          ILOCOC         OFF         [  0]    ***   
       MEMORY_SIZE          IMEMSZ         500000000           words  
       MEM_UNIT             IMEMU          INTEGERWORDS[  0]    ***   
       MRCC                 IMRCCC         OFF         [  0]    ***   
       MULTIPLICTY          IMULTP              1               ***   
       NACOUPLING           IVCOUP         OFF         [  0]    ***   
       NEGEVAL              IDIE           ABORT       [  0]    ***   
       NEWNORM              INEWNO         OFF         [  0]    ***   
       NON-HF               INONHF         OFF         [  0]    ***   
       NTOP_TAMP            ITOPT2             15               ***   
       NUC_MODEL            INUCMO         POINT       [  0]    ***   
       OCCUPATION           IOCCU   ESTIMATED BY SCF 
       OPEN-SHELL           IOPEN          SPIN-ORBITAL[  0]    ***   
       OPTVIB               IOPTVB         OFF         [  0]    ***   
       ORBITALS             IORBTP         STANDARD    [  0]    ***   
       PARALLEL             IPARAL         ON          [  1]    ***   
       PARA_INT             IPINTS         ON          [  1]    ***   
       PARA_PRINT           IPPRIN              0               ***   
       PERT_ORB             IPTORB         STANDARD    [  0]    ***   
       POINTS               IGRDFD              0               ***   
       PRINT                IPRNT               0               ***   
       PROPS                IPROPS         OFF         [  0]    ***   
       PROP_INTEGR          IINTYP         INTERNAL    [  0]    ***   
       PSI                  IPSI           OFF         [  0]    ***   
       QC_ALG               IQCALG         FLM         [  0]    ***   
       QC_LINALG            IQCLIN         TRIDIAG     [  2]    ***   
       QC_MAXCYC            IQCMAX          10D-100           cycles  
       QC_MAXSCFCY          IQCMSC          10D- 15           cycles  
       QC_RTRUST            IQCRTR          10D-  0           x 10-3  
       QC_SKIPSCF           IQCSKI         OFF         [  0]    ***   
       QC_START             IQCSTA          10D-  1             ***   
       QRHFGUESS            IQGUES         OFF         [  0]    ***   
       QUARTIC              IQUART         OFF         [  0]    ***   
       RAMAN_INT            IRAMIN         OFF         [  0]    ***   
       RAMAN_ORB            IRAMRE         UNRELAXED   [  0]    ***   
       RDO                  IRDOFM         ON          [  1]    ***   
       REDUCE_REPR          REDREP         Ir          [  0]    ***   
       REFERENCE            IREFNC         RHF         [  0]    ***   
       RELATIVIST           IRELAT         OFF         [  0]    ***   
       RELAX_DENS           IRDENS         ON          [  1]    ***   
       RESET_FLAGS          IRESET         OFF         [  0]    ***   
       RESTART_CC           ICCRES         OFF         [  0]    ***   
       ROT_EVEC             ROTVEC              0               ***   
       SAVE_INTS            ISVINT         OFF         [  0]    ***   
       SCALE_ON             ISTCRT              0               ***   
       SCF_CONV             ISCFCV          10D- 10             ***   
       SCF_DAMPING          IDAMP               0             x 10-3  
       SCF_EXPORDE          IRPPOR              6               ***   
       SCF_EXPSTAR          IRPPLS              8               ***   
       SCF_EXTRAPO          IRPP           ON          [  1]    ***   
       SCF_MAXCYC           ISCFCY            150              cycles 
       SCF_NOSTOP           ISCFST         OFF         [  0]    ***   
       SCF_PRINT            ISCFPR              0               ***   
       SCF_PROG             ISCFPR         SCF         [  0]    ***   
       SD_FIELD             IFINSD              0             x 10-6  
       SOPERT               IPERSO         OFF         [  0]    ***   
       SPHERICAL            IDFGHI         ON          [  1]    ***   
       SPINORBIT            ISOCAL         OFF         [  0]    ***   
       SPINROTATIO          ISRCON         OFF         [  0]    ***   
       SPIN_FLIP            ISPFLP         OFF         [  0]    ***   
       SPIN_ORBIT           ISPORB         OFF         [  0]    ***   
       SPIN_SCAL            ISCSMP         OFF         [  0]    ***   
       STEEPSCALE           ISTPSC              1000          x 10-3  
       SUBGROUP             ISUBGP         DEFAULT     [  0]    ***   
       SUBGRPAXIS           ISBXYZ         X           [  0]    ***   
       SYMMETRY             ISYM           ON          [  0]    ***   
       SYM_CHECK            ISYMCK         OVERRIDE    [  1]    ***   
       T3_EXTRAPOL          IT3EXT         OFF         [  0]    ***   
       T4_EXTRAPOL          IT4EXP         OFF         [  0]    ***   
       TAMP_SUM             IEVERY              5               ***   
       TESTSUITE            ITESTS         OFF         [  0]    ***   
       THERMOCH             ITHERM         OFF         [  0]    ***   
       TOL_CHOLESK          ITOLCH          10D-  4             ***   
       TRANGRAD             IRESRM         OFF         [  0]    ***   
       TRANS_INV            ITRAIN         IGNORE      [  1]    ***   
       TREAT_PERT           ITREAT         SIMULTANEOUS[  0]    ***   
       TRIP_ALGORI          ITRALG         NORMAL      [  0]    ***   
       UIJ_THRESHO          IUIJTH              1               ***   
       UNITS                IUNITS         ANGSTROM    [  0]    ***   
       UNOS                 IUNOS          OFF         [  0]    ***   
       UPDATE_HESS          IHUPDT         ON          [  1]    ***   
       VIBPHASE             ISETPH         STANDARD    [  0]    ***   
       VIBRATION            IVIB           ANALYTIC    [  1]    ***   
       VIB_ALGORIT          IGEALG         STANDARD    [  0]    ***   
       VNATORB              IVNORB         OFF         [  0]    ***   
       VTRAN                IVTRAN         FULL/PARTIAL[  0]    ***   
       XFIELD               IXEFLD              0             x 10-6  
       XFORM_TOL            IXFTOL          10D- 11             ***   
       YFIELD               IYEFLD              0             x 10-6  
       ZFIELD               IZEFLD            200             x 10-6  
       ZSCALE_EXP           IZEXPS         OFF         [  0]    ***   
    -------------------------------------------------------------------
   2 entries found in Z-matrix 
   Job Title : Carbon Monoxide DBOC calculation                                                
   There are  1 unique internal coordinates.
   Of these,  0 will be optimized.
   User supplied Z-matrix: 
--------------------------------------------------------------------------------
       SYMBOL    BOND      LENGTH    ANGLE     ANGLE     DIHED     ANGLE
                  TO      (ANGST)    WRT      (DEG)      WRT      (DEG)
--------------------------------------------------------------------------------
        C    
        O          1         r    
                  *Initial values for internal coordinates* 
                      Name             Value
                        r               1.7689655172
--------------------------------------------------------------------------------
  read isotopes from ZMAT file 
   Rotational constants (in cm-1): 
          0.7482270909             0.7482270909
   Rotational constants (in MHz): 
      22431.2870142931         22431.2870142931
********************************************************************************
   The full molecular point group is CXv .
   The largest Abelian subgroup of the full molecular point group is C2v .
   The computational point group is C2v .
********************************************************************************
--------------------------------------------------------------------------------
   Analysis of internal coordinates specified by Z-matrix 
--------------------------------------------------------------------------------
   *The nuclear repulsion energy is   14.358957567251460 a.u.
   *There is   1 degree of freedom within the tot. symm. molecular subspace.
   *Z-matrix requests optimization of   0 coordinates.
   *The optimization is constrained.
   *The following   1 parameters can have non-zero 
    derivatives within the totally symmetric subspace:
             r    [ 1]
   *The following   0 parameters are to be optimized:

   *The following coordinates must be varied in an  unconstrained optimization.
             r    [ 1]
--------------------------------------------------------------------------------


 ----------------------------------------------------------------
         Coordinates used in calculation (QCOMP) 
 ----------------------------------------------------------------
 Z-matrix   Atomic            Coordinates (in bohr)
  Symbol    Number           X              Y              Z
 ----------------------------------------------------------------
     C         6        -0.00000000     0.00000000     2.00567920
     O         8         0.00000000     0.00000000    -1.33718185
 ----------------------------------------------------------------
 
   Interatomic distance matrix (Angstroms) 
 
                 C             O    
                [ 1]        [ 2]
  C    [ 1]     0.00000
  O    [ 2]     1.76897     0.00000
 rotcon2
   Rotational constants (in cm-1): 
          0.7482270909             0.0000000000
   Rotational constants (in MHz): 
      22431.2870142931             0.0000000000
  ECPDATA file not present.   Using default ECPDATA. 
  @GTFLGS-I, Hessian will be transformed to curvilinear coordinates.
  There are  218 basis functions.
 @CHECKOUT-I, Total execution time (CPU/WALL):        0.16/       0.30 seconds.
--executable xjoda finished with status     0 in        0.35 seconds (walltime).
 --invoking executable--
/nfs/workspaces/public/cfour_mpi/bin/xvmol
 SERIAL VERSION OF MOLECULE STARTED
********************************************************************************
                    INPUT FROM MOL FILE
********************************************************************************
INTGRL        1    0    1    0    0    0    0    0    0                         
         *** CFOUR Program System (Release V0.1) ***                            
Carbon Monoxide DBOC calculation                                                
    2    2 X  Y       0.10E-08              0    0                              
   9999.00      3.00                                                            
          6.00000000    1    5    1    1    1    1    1                         
C #1  -0.000000000000000   0.000000000000000   2.005679203526626                
   16    9                                                                      
   33980.0000000000       9.100000000000000E-005 -1.900000000000000E-005        
  0.000000000000000E+000  0.000000000000000E+000  0.000000000000000E+000        
  0.000000000000000E+000  0.000000000000000E+000  0.000000000000000E+000        
  0.000000000000000E+000                                                        
   5089.00000000000       7.040000000000000E-004 -1.510000000000000E-004        
  0.000000000000000E+000  0.000000000000000E+000  0.000000000000000E+000        
  0.000000000000000E+000  0.000000000000000E+000  0.000000000000000E+000        
  0.000000000000000E+000                                                        
   1157.00000000000       3.693000000000000E-003 -7.850000000000000E-004        
  0.000000000000000E+000  0.000000000000000E+000  0.000000000000000E+000        
  0.000000000000000E+000  0.000000000000000E+000  0.000000000000000E+000        
  0.000000000000000E+000                                                        
   326.600000000000       1.536000000000000E-002 -3.324000000000000E-003        
  0.000000000000000E+000  0.000000000000000E+000  0.000000000000000E+000        
  0.000000000000000E+000  0.000000000000000E+000  0.000000000000000E+000        
  0.000000000000000E+000                                                        
   106.100000000000       5.292900000000000E-002 -1.151200000000000E-002        
  0.000000000000000E+000  0.000000000000000E+000  0.000000000000000E+000        
  0.000000000000000E+000  0.000000000000000E+000  0.000000000000000E+000        
  0.000000000000000E+000                                                        
   38.1100000000000       0.147043000000000      -3.416000000000000E-002        
  0.000000000000000E+000  0.000000000000000E+000  0.000000000000000E+000        
  0.000000000000000E+000  0.000000000000000E+000  0.000000000000000E+000        
  0.000000000000000E+000                                                        
   14.7500000000000       0.305631000000000      -7.717300000000001E-002        
  0.000000000000000E+000  0.000000000000000E+000  0.000000000000000E+000        
  0.000000000000000E+000  0.000000000000000E+000  0.000000000000000E+000        
  0.000000000000000E+000                                                        
   6.03500000000000       0.399345000000000      -0.141493000000000             
  0.000000000000000E+000  0.000000000000000E+000  0.000000000000000E+000        
  0.000000000000000E+000  0.000000000000000E+000  0.000000000000000E+000        
  0.000000000000000E+000                                                        
   2.53000000000000       0.217051000000000      -0.118019000000000             
  0.000000000000000E+000  0.000000000000000E+000  0.000000000000000E+000        
  0.000000000000000E+000  0.000000000000000E+000  0.000000000000000E+000        
  0.000000000000000E+000                                                        
  0.735500000000000       1.589400000000000E-002  0.273806000000000             
   1.00000000000000       0.000000000000000E+000  0.000000000000000E+000        
  0.000000000000000E+000  0.000000000000000E+000  0.000000000000000E+000        
  0.000000000000000E+000                                                        
  0.290500000000000      -3.084000000000000E-003  0.586510000000000             
  0.000000000000000E+000   1.00000000000000       0.000000000000000E+000        
  0.000000000000000E+000  0.000000000000000E+000  0.000000000000000E+000        
  0.000000000000000E+000                                                        
  0.111100000000000       9.779999999999999E-004  0.285430000000000             
  0.000000000000000E+000  0.000000000000000E+000   1.00000000000000             
  0.000000000000000E+000  0.000000000000000E+000  0.000000000000000E+000        
  0.000000000000000E+000                                                        
   7.21600000000000       0.000000000000000E+000  0.000000000000000E+000        
  0.000000000000000E+000  0.000000000000000E+000  0.000000000000000E+000        
   1.00000000000000       0.000000000000000E+000  0.000000000000000E+000        
  0.000000000000000E+000                                                        
   19.5700000000000       0.000000000000000E+000  0.000000000000000E+000        
  0.000000000000000E+000  0.000000000000000E+000  0.000000000000000E+000        
  0.000000000000000E+000   1.00000000000000       0.000000000000000E+000        
  0.000000000000000E+000                                                        
   53.0730000000000       0.000000000000000E+000  0.000000000000000E+000        
  0.000000000000000E+000  0.000000000000000E+000  0.000000000000000E+000        
  0.000000000000000E+000  0.000000000000000E+000   1.00000000000000             
  0.000000000000000E+000                                                        
  4.145000000000000E-002  0.000000000000000E+000  0.000000000000000E+000        
  0.000000000000000E+000  0.000000000000000E+000  0.000000000000000E+000        
  0.000000000000000E+000  0.000000000000000E+000  0.000000000000000E+000        
   1.00000000000000                                                             
   10    8                                                                      
   34.5100000000000       5.378000000000000E-003  0.000000000000000E+000        
  0.000000000000000E+000  0.000000000000000E+000  0.000000000000000E+000        
  0.000000000000000E+000  0.000000000000000E+000  0.000000000000000E+000        
   7.91500000000000       3.613200000000000E-002  0.000000000000000E+000        
  0.000000000000000E+000  0.000000000000000E+000  0.000000000000000E+000        
  0.000000000000000E+000  0.000000000000000E+000  0.000000000000000E+000        
   2.36800000000000       0.142493000000000       0.000000000000000E+000        
  0.000000000000000E+000  0.000000000000000E+000  0.000000000000000E+000        
  0.000000000000000E+000  0.000000000000000E+000  0.000000000000000E+000        
  0.813200000000000       0.342150000000000        1.00000000000000             
  0.000000000000000E+000  0.000000000000000E+000  0.000000000000000E+000        
  0.000000000000000E+000  0.000000000000000E+000  0.000000000000000E+000        
  0.289000000000000       0.463864000000000       0.000000000000000E+000        
   1.00000000000000       0.000000000000000E+000  0.000000000000000E+000        
  0.000000000000000E+000  0.000000000000000E+000  0.000000000000000E+000        
  0.100700000000000       0.250028000000000       0.000000000000000E+000        
  0.000000000000000E+000   1.00000000000000       0.000000000000000E+000        
  0.000000000000000E+000  0.000000000000000E+000  0.000000000000000E+000        
   8.18200000000000       0.000000000000000E+000  0.000000000000000E+000        
  0.000000000000000E+000  0.000000000000000E+000   1.00000000000000             
  0.000000000000000E+000  0.000000000000000E+000  0.000000000000000E+000        
   24.1860000000000       0.000000000000000E+000  0.000000000000000E+000        
  0.000000000000000E+000  0.000000000000000E+000  0.000000000000000E+000        
   1.00000000000000       0.000000000000000E+000  0.000000000000000E+000        
   71.4940000000000       0.000000000000000E+000  0.000000000000000E+000        
  0.000000000000000E+000  0.000000000000000E+000  0.000000000000000E+000        
  0.000000000000000E+000   1.00000000000000       0.000000000000000E+000        
  3.218000000000000E-002  0.000000000000000E+000  0.000000000000000E+000        
  0.000000000000000E+000  0.000000000000000E+000  0.000000000000000E+000        
  0.000000000000000E+000  0.000000000000000E+000   1.00000000000000             
    6    6                                                                      
   1.84800000000000        1.00000000000000       0.000000000000000E+000        
  0.000000000000000E+000  0.000000000000000E+000  0.000000000000000E+000        
  0.000000000000000E+000                                                        
  0.649000000000000       0.000000000000000E+000   1.00000000000000             
  0.000000000000000E+000  0.000000000000000E+000  0.000000000000000E+000        
  0.000000000000000E+000                                                        
  0.228000000000000       0.000000000000000E+000  0.000000000000000E+000        
   1.00000000000000       0.000000000000000E+000  0.000000000000000E+000        
  0.000000000000000E+000                                                        
   8.65600000000000       0.000000000000000E+000  0.000000000000000E+000        
  0.000000000000000E+000   1.00000000000000       0.000000000000000E+000        
  0.000000000000000E+000                                                        
   33.2130000000000       0.000000000000000E+000  0.000000000000000E+000        
  0.000000000000000E+000  0.000000000000000E+000   1.00000000000000             
  0.000000000000000E+000                                                        
  7.660000000000000E-002  0.000000000000000E+000  0.000000000000000E+000        
  0.000000000000000E+000  0.000000000000000E+000  0.000000000000000E+000        
   1.00000000000000                                                             
    4    4                                                                      
   1.41900000000000        1.00000000000000       0.000000000000000E+000        
  0.000000000000000E+000  0.000000000000000E+000                                
  0.485000000000000       0.000000000000000E+000   1.00000000000000             
  0.000000000000000E+000  0.000000000000000E+000                                
   24.6940000000000       0.000000000000000E+000  0.000000000000000E+000        
   1.00000000000000       0.000000000000000E+000                                
  0.187000000000000       0.000000000000000E+000  0.000000000000000E+000        
  0.000000000000000E+000   1.00000000000000                                     
    2    2                                                                      
   1.01100000000000        1.00000000000000       0.000000000000000E+000        
  0.424000000000000       0.000000000000000E+000   1.00000000000000             
          8.00000000    1    5    1    1    1    1    1                         
O #2   0.000000000000000   0.000000000000000  -1.337181848550986                
   16    9                                                                      
   61420.0000000000       9.000000000000001E-005 -2.000000000000000E-005        
  0.000000000000000E+000  0.000000000000000E+000  0.000000000000000E+000        
  0.000000000000000E+000  0.000000000000000E+000  0.000000000000000E+000        
  0.000000000000000E+000                                                        
   9199.00000000000       6.980000000000001E-004 -1.590000000000000E-004        
  0.000000000000000E+000  0.000000000000000E+000  0.000000000000000E+000        
  0.000000000000000E+000  0.000000000000000E+000  0.000000000000000E+000        
  0.000000000000000E+000                                                        
   2091.00000000000       3.664000000000000E-003 -8.290000000000000E-004        
  0.000000000000000E+000  0.000000000000000E+000  0.000000000000000E+000        
  0.000000000000000E+000  0.000000000000000E+000  0.000000000000000E+000        
  0.000000000000000E+000                                                        
   590.900000000000       1.521800000000000E-002 -3.508000000000000E-003        
  0.000000000000000E+000  0.000000000000000E+000  0.000000000000000E+000        
  0.000000000000000E+000  0.000000000000000E+000  0.000000000000000E+000        
  0.000000000000000E+000                                                        
   192.300000000000       5.242300000000000E-002 -1.215600000000000E-002        
  0.000000000000000E+000  0.000000000000000E+000  0.000000000000000E+000        
  0.000000000000000E+000  0.000000000000000E+000  0.000000000000000E+000        
  0.000000000000000E+000                                                        
   69.3200000000000       0.145921000000000      -3.626100000000000E-002        
  0.000000000000000E+000  0.000000000000000E+000  0.000000000000000E+000        
  0.000000000000000E+000  0.000000000000000E+000  0.000000000000000E+000        
  0.000000000000000E+000                                                        
   26.9700000000000       0.305258000000000      -8.299200000000000E-002        
  0.000000000000000E+000  0.000000000000000E+000  0.000000000000000E+000        
  0.000000000000000E+000  0.000000000000000E+000  0.000000000000000E+000        
  0.000000000000000E+000                                                        
   11.1000000000000       0.398508000000000      -0.152090000000000             
  0.000000000000000E+000  0.000000000000000E+000  0.000000000000000E+000        
  0.000000000000000E+000  0.000000000000000E+000  0.000000000000000E+000        
  0.000000000000000E+000                                                        
   4.68200000000000       0.216980000000000      -0.115331000000000             
  0.000000000000000E+000  0.000000000000000E+000  0.000000000000000E+000        
  0.000000000000000E+000  0.000000000000000E+000  0.000000000000000E+000        
  0.000000000000000E+000                                                        
   1.42800000000000       1.759400000000000E-002  0.288979000000000             
   1.00000000000000       0.000000000000000E+000  0.000000000000000E+000        
  0.000000000000000E+000  0.000000000000000E+000  0.000000000000000E+000        
  0.000000000000000E+000                                                        
  0.554700000000000      -2.502000000000000E-003  0.586128000000000             
  0.000000000000000E+000   1.00000000000000       0.000000000000000E+000        
  0.000000000000000E+000  0.000000000000000E+000  0.000000000000000E+000        
  0.000000000000000E+000                                                        
  0.206700000000000       9.540000000000000E-004  0.277624000000000             
  0.000000000000000E+000  0.000000000000000E+000   1.00000000000000             
  0.000000000000000E+000  0.000000000000000E+000  0.000000000000000E+000        
  0.000000000000000E+000                                                        
   12.9740000000000       0.000000000000000E+000  0.000000000000000E+000        
  0.000000000000000E+000  0.000000000000000E+000  0.000000000000000E+000        
   1.00000000000000       0.000000000000000E+000  0.000000000000000E+000        
  0.000000000000000E+000                                                        
   34.9000000000000       0.000000000000000E+000  0.000000000000000E+000        
  0.000000000000000E+000  0.000000000000000E+000  0.000000000000000E+000        
  0.000000000000000E+000   1.00000000000000       0.000000000000000E+000        
  0.000000000000000E+000                                                        
   93.8810000000000       0.000000000000000E+000  0.000000000000000E+000        
  0.000000000000000E+000  0.000000000000000E+000  0.000000000000000E+000        
  0.000000000000000E+000  0.000000000000000E+000   1.00000000000000             
  0.000000000000000E+000                                                        
  6.959000000000000E-002  0.000000000000000E+000  0.000000000000000E+000        
  0.000000000000000E+000  0.000000000000000E+000  0.000000000000000E+000        
  0.000000000000000E+000  0.000000000000000E+000  0.000000000000000E+000        
   1.00000000000000                                                             
   10    8                                                                      
   63.4200000000000       6.044000000000000E-003  0.000000000000000E+000        
  0.000000000000000E+000  0.000000000000000E+000  0.000000000000000E+000        
  0.000000000000000E+000  0.000000000000000E+000  0.000000000000000E+000        
   14.6600000000000       4.179900000000000E-002  0.000000000000000E+000        
  0.000000000000000E+000  0.000000000000000E+000  0.000000000000000E+000        
  0.000000000000000E+000  0.000000000000000E+000  0.000000000000000E+000        
   4.45900000000000       0.161143000000000       0.000000000000000E+000        
  0.000000000000000E+000  0.000000000000000E+000  0.000000000000000E+000        
  0.000000000000000E+000  0.000000000000000E+000  0.000000000000000E+000        
   1.53100000000000       0.356731000000000        1.00000000000000             
  0.000000000000000E+000  0.000000000000000E+000  0.000000000000000E+000        
  0.000000000000000E+000  0.000000000000000E+000  0.000000000000000E+000        
  0.530200000000000       0.448309000000000       0.000000000000000E+000        
   1.00000000000000       0.000000000000000E+000  0.000000000000000E+000        
  0.000000000000000E+000  0.000000000000000E+000  0.000000000000000E+000        
  0.175000000000000       0.244940000000000       0.000000000000000E+000        
  0.000000000000000E+000   1.00000000000000       0.000000000000000E+000        
  0.000000000000000E+000  0.000000000000000E+000  0.000000000000000E+000        
   14.4750000000000       0.000000000000000E+000  0.000000000000000E+000        
  0.000000000000000E+000  0.000000000000000E+000   1.00000000000000             
  0.000000000000000E+000  0.000000000000000E+000  0.000000000000000E+000        
   42.7300000000000       0.000000000000000E+000  0.000000000000000E+000        
  0.000000000000000E+000  0.000000000000000E+000  0.000000000000000E+000        
   1.00000000000000       0.000000000000000E+000  0.000000000000000E+000        
   126.140000000000       0.000000000000000E+000  0.000000000000000E+000        
  0.000000000000000E+000  0.000000000000000E+000  0.000000000000000E+000        
  0.000000000000000E+000   1.00000000000000       0.000000000000000E+000        
  5.348000000000000E-002  0.000000000000000E+000  0.000000000000000E+000        
  0.000000000000000E+000  0.000000000000000E+000  0.000000000000000E+000        
  0.000000000000000E+000  0.000000000000000E+000   1.00000000000000             
    6    6                                                                      
   3.77500000000000        1.00000000000000       0.000000000000000E+000        
  0.000000000000000E+000  0.000000000000000E+000  0.000000000000000E+000        
  0.000000000000000E+000                                                        
   1.30000000000000       0.000000000000000E+000   1.00000000000000             
  0.000000000000000E+000  0.000000000000000E+000  0.000000000000000E+000        
  0.000000000000000E+000                                                        
  0.444000000000000       0.000000000000000E+000  0.000000000000000E+000        
   1.00000000000000       0.000000000000000E+000  0.000000000000000E+000        
  0.000000000000000E+000                                                        
   14.9270000000000       0.000000000000000E+000  0.000000000000000E+000        
  0.000000000000000E+000   1.00000000000000       0.000000000000000E+000        
  0.000000000000000E+000                                                        
   57.5440000000000       0.000000000000000E+000  0.000000000000000E+000        
  0.000000000000000E+000  0.000000000000000E+000   1.00000000000000             
  0.000000000000000E+000                                                        
  0.154000000000000       0.000000000000000E+000  0.000000000000000E+000        
  0.000000000000000E+000  0.000000000000000E+000  0.000000000000000E+000        
   1.00000000000000                                                             
    4    4                                                                      
   2.66600000000000        1.00000000000000       0.000000000000000E+000        
  0.000000000000000E+000  0.000000000000000E+000                                
  0.859000000000000       0.000000000000000E+000   1.00000000000000             
  0.000000000000000E+000  0.000000000000000E+000                                
   26.4830000000000       0.000000000000000E+000  0.000000000000000E+000        
   1.00000000000000       0.000000000000000E+000                                
  0.324000000000000       0.000000000000000E+000  0.000000000000000E+000        
  0.000000000000000E+000   1.00000000000000                                     
    2    2                                                                      
   1.84600000000000        1.00000000000000       0.000000000000000E+000        
  0.714000000000000       0.000000000000000E+000   1.00000000000000             
FINISH                                                                          
 
********************************************************************************
 ONE- AND TWO-ELECTRON INTEGRALS OVER SYMMETRY-ADAPTED AOS ARE CALCULATED.

  SPHERICAL HARMONICS ARE USED.
  
  INTEGRALS LESS THAN  0.10E-13 ARE NEGLECTED.

  NUCLEAR REPULSION ENERGY :   14.3589575673 A.U.
  @MOLECU-I, ONE ELECTRON INTEGRALS (CPU/WALL):        0.06/       0.07 SECONDS.
  @TWOEL-I,    4363899 INTEGRALS OF SYMMETRY TYPE  I I I I
  @TWOEL-I,   18829919 INTEGRALS OF SYMMETRY TYPE  I J I J
  @TWOEL-I,    9917303 INTEGRALS OF SYMMETRY TYPE  I I J J
  @TWOEL-I,   13891393 INTEGRALS OF SYMMETRY TYPE  I J K L
  @TWOEL-I, TOTAL NUMBER OF 2-E INTEGRALS   47002514.
  @MOLECU-I, TWO ELECTRON INTEGRALS (CPU/WALL):      197.94/      26.96 SECONDS.
 @CHECKOUT-I, Total execution time (CPU/WALL):      198.02/      27.06 seconds.

Running with 14 threads/proc

--executable xvmol finished with status     0 in       27.18 seconds (walltime).
 --invoking executable--
/nfs/workspaces/public/cfour_mpi/bin/xvmol2ja
 @GETMEM-I,  Allocated    3814 MB of main memory.
 @CHECKOUT-I, Total execution time (CPU/WALL):        0.25/       0.05 seconds.
--executable xvmol2ja finished with status     0 in        0.14 seconds (walltime).
 --invoking executable--
/nfs/workspaces/public/cfour_mpi/bin/xvprop
 @GETMEM-I,  Allocated    3814 MB of main memory.
   Property integrals will be calculated.
    --------------------------------------------------------------
                                   Property evaluated at 
    Property type                X             Y             Z
    --------------------------------------------------------------
    Dipole moment               ----          ----          ----  
    Quadrupole moment           ----          ----          ----  
    Octopole moment             ----          ----          ----  
    Relativisitic corr.         ----          ----          ----  
    Second moment            0.0000000     0.0000000     0.0000000
    Electron density         0.0000000     0.0000000     2.0056792
    Electron density         0.0000000     0.0000000    -1.3371818
    Field gradient           0.0000000     0.0000000     2.0056792
    Field gradient           0.0000000     0.0000000    -1.3371818
    Potential                0.0000000     0.0000000     2.0056792
    Potential                0.0000000     0.0000000    -1.3371818
    --------------------------------------------------------------
 @CHECKOUT-I, Total execution time (CPU/WALL):        1.32/       1.36 seconds.
--executable xvprop finished with status     0 in        1.46 seconds (walltime).
 --invoking executable--
/nfs/workspaces/public/cfour_mpi/bin/xvscf
  There are  218 functions in the AO basis.

  There are 4 irreducible representations.

       Irrep        # of functions
         1                 86
         2                 52
         3                 52
         4                 28


  Parameters for SCF calculation: 
        SCF reference function:  RHF  
  Maximum number of iterations:  150
     Full symmetry point group: CXv 
     Computational point group: C2v 
        Initial density matrix: MOREAD                 
     SCF convergence tolerance: 10**(-10)
  DIIS convergence acceleration:  ON
          Latest start for DIIS:   8
                     DIIS order:   6

  Memory information:    2523578 words required.
  Fock matrices are constructed from AO integral file.
 @GETMEM-I,  Allocated      19 MB of main memory.
  Initialization and symmetry analysis required      0.002 seconds.

  Adding electric field perturbation to one-electron Hamiltonian.
  Field direction     : Z
  Field strength      :  0.0002000 a.u.

  @INITGES-I, Occupancies from core Hamiltonian:

          Alpha population by irrep:   5    1    1    0
           Beta population by irrep:   5    1    1    0


 total no. of electrons in initial guess :  0.000000000000000E+000
  --------------------------------------------------------------------
  Iteration         Total Energy            Largest Density Difference
  --------------------------------------------------------------------
       0            14.358690243165583              0.0000000000D+00
   current occupation vector 
     5  1  1  0
     5  1  1  0
       1           -93.748679696595048              0.1756541003D+02
   current occupation vector 
     5  1  1  0
     5  1  1  0
       2           -97.576546852793001              0.1756540456D+02
   current occupation vector 
     5  1  1  0
     5  1  1  0
       3           -99.752991650400517              0.6998951451D+01
   current occupation vector 
     5  1  1  0
     5  1  1  0
       4           -94.152271432701951              0.6997474471D+01
   current occupation vector 
     5  1  1  0
     5  1  1  0
       5           -99.775563560351301              0.7075001266D+01
   current occupation vector 
     5  1  1  0
     5  1  1  0
       6           -94.061669989599892              0.7075012661D+01
   current occupation vector 
     5  1  1  0
     5  1  1  0
       7           -99.773498366248958              0.7078243528D+01
   current occupation vector 
     5  1  1  0
     5  1  1  0
       8           -94.059659408966979              0.7078244603D+01
   current occupation vector 
     5  1  1  0
     5  1  1  0
       9          -106.750860802367711              0.6127518670D+01
   current occupation vector 
     5  1  1  0
     5  1  1  0
      10          -110.508398632734568              0.1340402907D+01
   current occupation vector 
     5  1  1  0
     5  1  1  0
      11          -112.136455606832286              0.9542815963D+00
   current occupation vector 
     5  1  1  0
     5  1  1  0
      12          -112.305961132471566              0.7473793274D+00
   current occupation vector 
     5  1  1  0
     5  1  1  0
      13          -112.411820099872358              0.1637645297D+00
   current occupation vector 
     5  1  1  0
     5  1  1  0
      14          -112.438930999097892              0.1519083865D+00
   current occupation vector 
     5  1  1  0
     5  1  1  0
      15          -112.440938881315518              0.5603199279D-01
   current occupation vector 
     5  1  1  0
     5  1  1  0
      16          -112.443294712859895              0.9449087429D-01
   current occupation vector 
     5  1  1  0
     5  1  1  0
      17          -112.445016741052839              0.1064579972D+00
   current occupation vector 
     5  1  1  0
     5  1  1  0
      18          -112.445372348900818              0.6187633196D-01
   current occupation vector 
     5  1  1  0
     5  1  1  0
      19          -112.445374071635172              0.2353450344D-02
   current occupation vector 
     5  1  1  0
     5  1  1  0
      20          -112.445374416149178              0.2812446748D-02
   current occupation vector 
     5  1  1  0
     5  1  1  0
      21          -112.445374442025397              0.7894498849D-03
   current occupation vector 
     5  1  1  0
     5  1  1  0
      22          -112.445374445002145              0.1994480196D-03
   current occupation vector 
     5  1  1  0
     5  1  1  0
      23          -112.445374445016640              0.1512412648D-04
   current occupation vector 
     5  1  1  0
     5  1  1  0
      24          -112.445374445016668              0.1116304681D-05
   current occupation vector 
     5  1  1  0
     5  1  1  0
      25          -112.445374445018246              0.1091226293D-06
   current occupation vector 
     5  1  1  0
     5  1  1  0
      26          -112.445374445016512              0.3927579506D-07
   current occupation vector 
     5  1  1  0
     5  1  1  0
      27          -112.445374445016711              0.1067189093D-07
   current occupation vector 
     5  1  1  0
     5  1  1  0
      28          -112.445374445017066              0.1851147546D-07
   current occupation vector 
     5  1  1  0
     5  1  1  0
      29          -112.445374445016640              0.4401377485D-08
   current occupation vector 
     5  1  1  0
     5  1  1  0
      30          -112.445374445018359              0.1029173191D-08
   current occupation vector 
     5  1  1  0
     5  1  1  0
      31          -112.445374445017364              0.2476674421D-09
   current occupation vector 
     5  1  1  0
     5  1  1  0
      32          -112.445374445017251              0.1727968879D-09
   current occupation vector 
     5  1  1  0
     5  1  1  0
      33          -112.445374445016924              0.5746461085D-09
   current occupation vector 
     5  1  1  0
     5  1  1  0
      34          -112.445374445016810              0.3139532800D-09
   current occupation vector 
     5  1  1  0
     5  1  1  0
      35          -112.445374445018373              0.2901781038D-09
   current occupation vector 
     5  1  1  0
     5  1  1  0
      36          -112.445374445017308              0.2277626976D-09
   current occupation vector 
     5  1  1  0
     5  1  1  0
      37          -112.445374445018089              0.2319322512D-09
   current occupation vector 
     5  1  1  0
     5  1  1  0

  SCF has converged.

 Density matrix saved to file den.dat
 total electron number:   14.0000000000000     
     E(SCF)=      -112.445374445016924              0.8833689336D-10

  Eigenvector printing suppressed.

 @PUTMOS-I, Writing converged MOs to NEWMOS. 
 @PUTMOS-I, Symmetry   1 Full Blocks 21 Partial Blocksize   2
 @PUTMOS-I, Symmetry   2 Full Blocks 13 Partial Blocksize   0
 @PUTMOS-I, Symmetry   3 Full Blocks 13 Partial Blocksize   0
 @PUTMOS-I, Symmetry   4 Full Blocks  7 Partial Blocksize   0
 @PUTFOCK-I, Writing converged Fock matrix to NEWFOCK. 
 @PUTFOCK-I, Symmetry   1 Full Blocks 21 Partial Blocksize   2
 @PUTFOCK-I, Symmetry   2 Full Blocks 13 Partial Blocksize   0
 @PUTFOCK-I, Symmetry   3 Full Blocks 13 Partial Blocksize   0
 @PUTFOCK-I, Symmetry   4 Full Blocks  7 Partial Blocksize   0


 
  ORBITAL EIGENVALUES (ALPHA)  (1H = 27.2113834 eV)

       MO #        E(hartree)               E(eV)           FULLSYM    COMPSYM
       ----   --------------------   --------------------   -------   ---------
    1     1         -20.6242911048        -561.2154926063     SG+        A1 (1)
    2     2         -11.5349336798        -313.8815028538     SG+        A1 (1)
    3     3          -1.2260598323         -33.3627841694     SG+        A1 (1)
    4     4          -0.8137874374         -22.1442819659     SG+        A1 (1)
    5     5          -0.4890345958         -13.3073078820     SG+        A1 (1)
    6   139          -0.4776682338         -12.9980134487      PI        B2 (3)
    7    87          -0.4776682338         -12.9980134487      PI        B1 (2)
  +++++++++++++++++++++++++++++++++++++++++++++++++++++++++++++++++++++++++++++
    8    88          -0.0269575009          -0.7335508929      PI        B1 (2)
    9   140          -0.0269575009          -0.7335508929      PI        B2 (3)
   10     6           0.0574975549           1.5645880111     SG+        A1 (1)
   11     7           0.0684968165           1.8638931342     SG+        A1 (1)
   12    89           0.0813044504           2.2124065731      PI        B1 (2)
   13   141           0.0813044504           2.2124065731      PI        B2 (3)
   14     8           0.1480245433           4.0279526001     SG+        A1 (1)
   15     9           0.1623716695           4.4183577515     SG+        A1 (1)
   16    90           0.1837556905           5.0002465474      PI        B1 (2)
   17   142           0.1837556905           5.0002465474      PI        B2 (3)
   18   191           0.2193371389           5.9684669801      DE        A2 (4)
   19    10           0.2193371389           5.9684669801      DE        A1 (1)
   20    91           0.2789867985           7.5916167363      PI        B1 (2)
   21   143           0.2789867985           7.5916167363      PI        B2 (3)
   22    11           0.2861385023           7.7862244913     SG+        A1 (1)
   23    12           0.3056286529           8.3165784512     SG+        A1 (1)
   24    13           0.4085469142          11.1171267200     SG+        A1 (1)
   25    92           0.4113923708          11.1945555308      PI        B1 (2)
   26   144           0.4113923708          11.1945555308      PI        B2 (3)
   27    14           0.5166954764          14.0599987104     SG+        A1 (1)
   28   192           0.5504893540          14.9795768703      DE        A2 (4)
   29    15           0.5504893540          14.9795768703      DE        A1 (1)
   30    93           0.6243119256          16.9883911680      PI        B1 (2)
   31   145           0.6243119256          16.9883911680      PI        B2 (3)
   32    16           0.6961844937          18.9441431751     SG+        A1 (1)
   33    94           0.7236981653          19.6928282429      PH        B1 (2)
   34   146           0.7236981653          19.6928282429      PH        B2 (3)
   35   193           0.7302042070          19.8698666376      DE        A2 (4)
   36    17           0.7302042070          19.8698666376      DE        A1 (1)
   37    95           0.7658116042          20.8387931737      PI        B1 (2)
   38   147           0.7658116042          20.8387931737      PI        B2 (3)
   39    18           0.8036636596          21.8687999658     SG+        A1 (1)
   40    19           0.8443607134          22.9762230990      DE        A1 (1)
   41   194           0.8443607134          22.9762230990      DE        A2 (4)
   42   148           0.8575387690          23.3348162234      PI        B2 (3)
   43    96           0.8575387690          23.3348162234      PI        B1 (2)
   44    20           0.9121957829          24.8221091845     SG+        A1 (1)
   45    97           1.0606189555          28.8609090403      PI        B1 (2)
   46   149           1.0606189555          28.8609090403      PI        B2 (3)
   47    21           1.1562901968          31.4642558670     SG+        A1 (1)
   48    22           1.3107043162          35.6660776711     SG+        A1 (1)
   49   150           1.4178252964          38.5809877353      PH        B2 (3)
   50    98           1.4178252964          38.5809877353      PH        B1 (2)
   51    99           1.4474991804          39.3884551687      PI        B1 (2)
   52   151           1.4474991804          39.3884551687      PI        B2 (3)
   53    23           1.5757637501          42.8787115512     SG+        A1 (1)
   54   195           1.5842069795          43.1084635032      DE        A2 (4)
   55    24           1.5842069795          43.1084635032      DE        A1 (1)
   56   152           1.6425009994          44.6947244299      PI        B2 (3)
   57   100           1.6425009994          44.6947244299      PI        B1 (2)
   58   196           1.6545326874          45.0221233053      DE        A2 (4)
   59    25           1.6545326874          45.0221233054      DE        A1 (1)
   60    26           1.8390161090          50.0421724208     SG+        A1 (1)
   61    27           1.9229769726          52.3268636704     SG+        A1 (1)
   62   101           2.0005970372          54.4390130087      PI        B1 (2)
   63   153           2.0005970372          54.4390130087      PI        B2 (3)
   64   197           2.0531197112          55.8682276282      PI        A2 (4)
   65    28           2.0531197112          55.8682276282      PI        A1 (1)
   66    29           2.1116226338          57.4601730857      DE        A1 (1)
   67   198           2.1116226338          57.4601730857      DE        A2 (4)
   68   154           2.1565208616          58.6819159741      PH        B2 (3)
   69   102           2.1565208616          58.6819159741      PH        B1 (2)
   70   155           2.1932304298          59.6808341097      PH        B2 (3)
   71   103           2.1932304298          59.6808341097      PH        B1 (2)
   72   156           2.1952048475          59.7345607458      PI        B2 (3)
   73   104           2.1952048475          59.7345607458      PI        B1 (2)
   74    30           2.2232985545          60.4990293799     SG+        A1 (1)
   75   199           2.2634222961          61.5908518950      DE        A2 (4)
   76    31           2.2634222961          61.5908518950      DE        A1 (1)
   77    32           2.3490691590          63.9214215181     SG+        A1 (1)
   78   157           2.4530188794          66.7500372148      PI        B2 (3)
   79   105           2.4530188794          66.7500372148      PI        B1 (2)
   80   200           2.5259047404          68.7333623224      DE        A2 (4)
   81    33           2.5259047404          68.7333623224      DE        A1 (1)
   82    34           2.6318386067          71.6159693737     SG+        A1 (1)
   83   106           2.6587726925          72.3488831095      PI        B1 (2)
   84   158           2.6587726925          72.3488831095      PI        B2 (3)
   85    35           2.7955637827          76.0711579115     SG+        A1 (1)
   86   107           3.2151583516          87.4889065984      PI        B1 (2)
   87   159           3.2151583516          87.4889065984      PI        B2 (3)
   88    36           3.7260616503         101.3912921375      PI        A1 (1)
   89   201           3.7260616503         101.3912921375      PI        A2 (4)
   90    37           3.7414715383         101.8106165082     SG+        A1 (1)
   91   108           3.8451297277         104.6312992433      PH        B1 (2)
   92   160           3.8451297277         104.6312992433      PH        B2 (3)
   93    38           4.0539491189         110.3135637572     SG+        A1 (1)
   94    39           4.1138324706         111.9430726007      DE        A1 (1)
   95   202           4.1138324706         111.9430726007      DE        A2 (4)
   96   161           4.1308534026         112.4062357086      PI        B2 (3)
   97   109           4.1308534026         112.4062357086      PI        B1 (2)
   98   162           4.1560026051         113.0905802986      PH        B2 (3)
   99   110           4.1560026051         113.0905802986      PH        B1 (2)
  100    40           4.2860179822         116.6284785735     SG+        A1 (1)
  101    41           4.3140741057         117.3919245053      DE        A1 (1)
  102   203           4.3140741057         117.3919245053      DE        A2 (4)
  103   163           4.4538885623         121.1964692901      PI        B2 (3)
  104   111           4.4538885623         121.1964692901      PI        B1 (2)
  105   204           4.5416477345         123.5845177708      DE        A2 (4)
  106    42           4.5416477345         123.5845177708      DE        A1 (1)
  107    43           4.8375667306         131.6368830301     SG+        A1 (1)
  108   112           4.9707458836         135.2608720223      PI        B1 (2)
  109   164           4.9707458836         135.2608720224      PI        B2 (3)
  110    44           5.0926591763         138.5783013722     SG+        A1 (1)
  111   113           5.3508781809         145.6047977079      PI        B1 (2)
  112   165           5.3508781809         145.6047977080      PI        B2 (3)
  113   205           5.8025571137         157.8956063216      PI        A2 (4)
  114    45           5.8025571137         157.8956063216      PI        A1 (1)
  115   166           5.8744389550         159.8516106643      PH        B2 (3)
  116   114           5.8744389550         159.8516106643      PH        B1 (2)
  117    46           5.8997419621         160.5401404905     SG+        A1 (1)
  118   206           6.0169868942         163.7305372920      DE        A2 (4)
  119    47           6.0169868942         163.7305372920      DE        A1 (1)
  120   167           6.0933256040         165.8078191904      PI        B2 (3)
  121   115           6.0933256040         165.8078191904      PI        B1 (2)
  122    48           6.1175273936         166.4663833679     SG+        A1 (1)
  123   207           6.2309580904         169.5529895480      DE        A2 (4)
  124    49           6.2309580904         169.5529895480      DE        A1 (1)
  125   168           6.3269835062         172.1659739530      PH        B2 (3)
  126   116           6.3269835062         172.1659739530      PH        B1 (2)
  127   208           6.4525932812         175.5839896995      DE        A2 (4)
  128    50           6.4525932812         175.5839896995      DE        A1 (1)
  129   117           6.6513173007         180.9915451837      PI        B1 (2)
  130   169           6.6513173007         180.9915451837      PI        B2 (3)
  131   118           6.9025044169         187.8266941090      PI        B1 (2)
  132   170           6.9025044169         187.8266941090      PI        B2 (3)
  133    51           7.0222057260         191.0839323237     SG+        A1 (1)
  134    52           7.3479412607         199.9476468446     SG+        A1 (1)
  135    53           9.2250947542         251.0275902590     SG+        A1 (1)
  136   119           9.5620693098         260.1971340869      PI        B1 (2)
  137   171           9.5620693098         260.1971340870      PI        B2 (3)
  138    54          10.6179367622         288.9287481532     SG+        A1 (1)
  139   209          10.6908568037         290.9130033612      PI        A2 (4)
  140    55          10.6908568037         290.9130033612      PI        A1 (1)
  141   172          10.7221807519         291.7653713239      PH        B2 (3)
  142   120          10.7221807519         291.7653713239      PH        B1 (2)
  143   210          10.9000690151         296.6059570554      DE        A2 (4)
  144    56          10.9000690151         296.6059570555      DE        A1 (1)
  145   121          11.0057575049         299.4818870739      PI        B1 (2)
  146   173          11.0057575049         299.4818870739      PI        B2 (3)
  147    57          11.0662438497         301.1278041916     SG+        A1 (1)
  148   174          11.9248806933         324.4925005442      PH        B2 (3)
  149   122          11.9248806933         324.4925005442      PH        B1 (2)
  150   211          11.9714453531         325.7595893541      DE        A2 (4)
  151    58          11.9714453531         325.7595893542      DE        A1 (1)
  152   123          12.1383254774         330.3006283991      PI        B1 (2)
  153   175          12.1383254774         330.3006283991      PI        B2 (3)
  154    59          12.4206988037         337.9843972438     SG+        A1 (1)
  155    60          12.7255680150         346.2803102386      DE        A1 (1)
  156   212          12.7255680150         346.2803102387      DE        A2 (4)
  157   124          13.0726297351         355.7243397678      PI        B1 (2)
  158   176          13.0726297351         355.7243397678      PI        B2 (3)
  159    61          13.2943904000         361.7587542447     SG+        A1 (1)
  160    62          17.1220043061         465.9134237496     SG+        A1 (1)
  161   125          18.6454228885         507.3677508736      PI        B1 (2)
  162   177          18.6454228885         507.3677508739      PI        B2 (3)
  163    63          19.3095598821         525.4398372376     SG+        A1 (1)
  164   213          26.2288640817         713.7236766735      DE        A2 (4)
  165    64          26.2288640817         713.7236766735      DE        A1 (1)
  166   178          26.4124468895         718.7192188422      PI        B2 (3)
  167   126          26.4124468895         718.7192188422      PI        B1 (2)
  168    65          26.8009544625         729.2910473647     SG+        A1 (1)
  169   127          33.3106408387         906.4286191611      PI        B1 (2)
  170   179          33.3106408387         906.4286191619      PI        B2 (3)
  171    66          34.0490179439         926.5208816657     SG+        A1 (1)
  172    67          35.4831609708         965.5458974213     SG+        A1 (1)
  173   214          47.0889924654        1281.3566278970      DE        A2 (4)
  174    68          47.0889924654        1281.3566278970      DE        A1 (1)
  175   128          47.2530752161        1285.8215465337      PI        B1 (2)
  176   180          47.2530752161        1285.8215465338      PI        B2 (3)
  177    69          47.3820101244        1289.3300437585     SG+        A1 (1)
  178    70          63.5890189929        1730.3451758457     SG+        A1 (1)
  179   129          66.2454262198        1802.6296913633      PI        B1 (2)
  180   181          66.2454262198        1802.6296913636      PI        B2 (3)
  181    71          66.7452143740        1816.2296184451     SG+        A1 (1)
  182   182          98.4909479062        2680.0749449048      PH        B2 (3)
  183   130          98.4909479062        2680.0749449048      PH        B1 (2)
  184   215          98.5072677774        2680.5190311762      DE        A2 (4)
  185    72          98.5072677774        2680.5190311763      DE        A1 (1)
  186   183          98.5221520790        2680.9240536151      PI        B2 (3)
  187   131          98.5221520790        2680.9240536151      PI        B1 (2)
  188    73          98.5282612135        2681.0902916159     SG+        A1 (1)
  189   216         103.3287470942        2811.7181534221      DE        A2 (4)
  190    74         103.3287470942        2811.7181534226      DE        A1 (1)
  191   132         103.3313668135        2811.7894396078      PI        B1 (2)
  192   184         103.3313668135        2811.7894396078      PI        B2 (3)
  193    75         103.3428339221        2812.1014754961     SG+        A1 (1)
  194   185         103.3441449752        2812.1371510654      PH        B2 (3)
  195   133         103.3441449752        2812.1371510654      PH        B1 (2)
  196    76         114.9400608900        3127.6780648980      DE        A1 (1)
  197   217         114.9400608900        3127.6780648980      DE        A2 (4)
  198   186         115.0301835898        3130.1304282342      PI        B2 (3)
  199   134         115.0301835898        3130.1304282343      PI        B1 (2)
  200    77         115.1932906318        3134.5687964892     SG+        A1 (1)
  201   135         116.6387532020        3173.9018326769      PI        B1 (2)
  202   187         116.6387532020        3173.9018326774      PI        B2 (3)
  203    78         117.2711844643        3191.1111622309     SG+        A1 (1)
  204    79         121.7407560285        3312.7343876973     SG+        A1 (1)
  205   218         198.5745703614        5403.4887675945      DE        A2 (4)
  206    80         198.5745703614        5403.4887675946      DE        A1 (1)
  207   136         198.6637338667        5405.9150299210      PI        B1 (2)
  208   188         198.6637338667        5405.9150299211      PI        B2 (3)
  209    81         198.7330081029        5407.8000777223     SG+        A1 (1)
  210    82         216.1296464846        5881.1866745981     SG+        A1 (1)
  211   137         224.7382069408        6115.4375136956      PI        B1 (2)
  212   189         224.7382069408        6115.4375136958      PI        B2 (3)
  213    83         225.1317302833        6126.1458282439     SG+        A1 (1)
  214   138         395.1976596384       10753.8750352030      PI        B1 (2)
  215   190         395.1976596384       10753.8750352033      PI        B2 (3)
  216    84         395.6832748310       10767.0892963936     SG+        A1 (1)
  217    85         508.5029956553       13837.0699748261     SG+        A1 (1)
  218    86         894.9407621184       24352.5761982913     SG+        A1 (1)


  VSCF finished.

 @CHECKOUT-I, Total execution time (CPU/WALL):       62.24/      10.62 seconds.
--executable xvscf finished with status     0 in       10.72 seconds (walltime).
 --invoking executable--
/nfs/workspaces/public/cfour_mpi/bin/xvtran
 @GETMEM-I,  Allocated    3814 MB of main memory.
  Full RHF integral transformation
  Transformation of IIII integrals :
  1 pass through the AO integral file was required.
     4363899 AO integrals were read.
     8580419 MO integrals were written to HF2.
  Transformation of IIJJ integrals :
  1 pass through the AO integral file was required.
     9917303 AO integrals were read.
    14343603 MO integrals were written to HF2.
  Transformation of IJIJ integrals :
  1 pass through the AO integral file was required.
    18829919 AO integrals were read.
    26783134 MO integrals were written to HF2.
  Transformation of IJKL integrals :
  1 pass through the AO integral file was required.
    13891393 AO integrals were read.
    18125736 MO integrals were written to HF2.
  Summary of active molecular orbitals: 
------------------------------------------------------------------------
 
  Index      Eigenvalue    Symmetry    Index      Eigenvalue    Symmetry
------------------------------------------------------------------------
     1       -20.6242911        1       110         4.1308534        2
     2       -11.5349337        1       111         4.1560026        2
     3        -1.2260598        1       112         4.4538886        2
     4        -0.8137874        1       113         4.9707459        2
     5        -0.4890346        1       114         5.3508782        2
     6        -0.4776682        2       115         5.8744390        2
     7        -0.4776682        3       116         6.0933256        2
     8         0.0574976        1       117         6.3269835        2
     9         0.0684968        1       118         6.6513173        2
    10         0.1480245        1       119         6.9025044        2
    11         0.1623717        1       120         9.5620693        2
    12         0.2193371        1       121        10.7221808        2
    13         0.2861385        1       122        11.0057575        2
    14         0.3056287        1       123        11.9248807        2
    15         0.4085469        1       124        12.1383255        2
    16         0.5166955        1       125        13.0726297        2
    17         0.5504894        1       126        18.6454229        2
    18         0.6961845        1       127        26.4124469        2
    19         0.7302042        1       128        33.3106408        2
    20         0.8036637        1       129        47.2530752        2
    21         0.8443607        1       130        66.2454262        2
    22         0.9121958        1       131        98.4909479        2
    23         1.1562902        1       132        98.5221521        2
    24         1.3107043        1       133       103.3313668        2
    25         1.5757638        1       134       103.3441450        2
    26         1.5842070        1       135       115.0301836        2
    27         1.6545327        1       136       116.6387532        2
    28         1.8390161        1       137       198.6637339        2
    29         1.9229770        1       138       224.7382069        2
    30         2.0531197        1       139       395.1976596        2
    31         2.1116226        1       140        -0.0269575        3
    32         2.2232986        1       141         0.0813045        3
    33         2.2634223        1       142         0.1837557        3
    34         2.3490692        1       143         0.2789868        3
    35         2.5259047        1       144         0.4113924        3
    36         2.6318386        1       145         0.6243119        3
    37         2.7955638        1       146         0.7236982        3
    38         3.7260617        1       147         0.7658116        3
    39         3.7414715        1       148         0.8575388        3
    40         4.0539491        1       149         1.0606190        3
    41         4.1138325        1       150         1.4178253        3
    42         4.2860180        1       151         1.4474992        3
    43         4.3140741        1       152         1.6425010        3
    44         4.5416477        1       153         2.0005970        3
    45         4.8375667        1       154         2.1565209        3
    46         5.0926592        1       155         2.1932304        3
    47         5.8025571        1       156         2.1952048        3
    48         5.8997420        1       157         2.4530189        3
    49         6.0169869        1       158         2.6587727        3
    50         6.1175274        1       159         3.2151584        3
    51         6.2309581        1       160         3.8451297        3
    52         6.4525933        1       161         4.1308534        3
    53         7.0222057        1       162         4.1560026        3
    54         7.3479413        1       163         4.4538886        3
    55         9.2250948        1       164         4.9707459        3
    56        10.6179368        1       165         5.3508782        3
    57        10.6908568        1       166         5.8744390        3
    58        10.9000690        1       167         6.0933256        3
    59        11.0662438        1       168         6.3269835        3
    60        11.9714454        1       169         6.6513173        3
    61        12.4206988        1       170         6.9025044        3
    62        12.7255680        1       171         9.5620693        3
    63        13.2943904        1       172        10.7221808        3
    64        17.1220043        1       173        11.0057575        3
    65        19.3095599        1       174        11.9248807        3
    66        26.2288641        1       175        12.1383255        3
    67        26.8009545        1       176        13.0726297        3
    68        34.0490179        1       177        18.6454229        3
    69        35.4831610        1       178        26.4124469        3
    70        47.0889925        1       179        33.3106408        3
    71        47.3820101        1       180        47.2530752        3
    72        63.5890190        1       181        66.2454262        3
    73        66.7452144        1       182        98.4909479        3
    74        98.5072678        1       183        98.5221521        3
    75        98.5282612        1       184       103.3313668        3
    76       103.3287471        1       185       103.3441450        3
    77       103.3428339        1       186       115.0301836        3
    78       114.9400609        1       187       116.6387532        3
    79       115.1932906        1       188       198.6637339        3
    80       117.2711845        1       189       224.7382069        3
    81       121.7407560        1       190       395.1976596        3
    82       198.5745704        1       191         0.2193371        4
    83       198.7330081        1       192         0.5504894        4
    84       216.1296465        1       193         0.7302042        4
    85       225.1317303        1       194         0.8443607        4
    86       395.6832748        1       195         1.5842070        4
    87       508.5029957        1       196         1.6545327        4
    88       894.9407621        1       197         2.0531197        4
    89        -0.0269575        2       198         2.1116226        4
    90         0.0813045        2       199         2.2634223        4
    91         0.1837557        2       200         2.5259047        4
    92         0.2789868        2       201         3.7260617        4
    93         0.4113924        2       202         4.1138325        4
    94         0.6243119        2       203         4.3140741        4
    95         0.7236982        2       204         4.5416477        4
    96         0.7658116        2       205         5.8025571        4
    97         0.8575388        2       206         6.0169869        4
    98         1.0606190        2       207         6.2309581        4
    99         1.4178253        2       208         6.4525933        4
   100         1.4474992        2       209        10.6908568        4
   101         1.6425010        2       210        10.9000690        4
   102         2.0005970        2       211        11.9714454        4
   103         2.1565209        2       212        12.7255680        4
   104         2.1932304        2       213        26.2288641        4
   105         2.1952048        2       214        47.0889925        4
   106         2.4530189        2       215        98.5072678        4
   107         2.6587727        2       216       103.3287471        4
   108         3.2151584        2       217       114.9400609        4
   109         3.8451297        2       218       198.5745704        4
------------------------------------------------------------------------
  -20.6242911048125       -11.5349336797698       -1.22605983234958     
 -0.813787437427062      -0.489034595795200      -0.477668233828910     
 -0.477668233829123       5.749755490486150E-002  6.849681645515415E-002
[...]
 Convergence information after    22 iterations: 
 Largest element of residual vector :  0.14290840E-06.
 Largest element of DIIS residual   :  0.88083921E-07.
 Perturbed amplitude equations converged in    22 iterations.
  Dominant contributions to perturbed wavefunction:
    7    0   46    0   0.3420757933 AA  
    7    0   22    0   0.2891149604 AA  
    7    0   32    0   0.2331403618 AA  
    7    0   36    0   0.2299264778 AA  
    7    7  140   46  -0.2267649424 ABAB
    7    7   46  140  -0.2267649424 ABAB
    7    0   28    0   0.2240808778 AA  
    7    7  140   22  -0.2234398922 ABAB
    7    7   22  140  -0.2234398922 ABAB
    7    0   54    0  -0.2080415242 AA  
    7    0   16    0  -0.2036434969 AA  
    7    0   25    0   0.1994455953 AA  
    7    0   56    0   0.1888564994 AA  
    7    7  140   32  -0.1887601420 ABAB
    7    7   32  140  -0.1887601420 ABAB
    7    0   24    0   0.1790740300 AA  
    7    0   37    0   0.1766209401 AA  
    7    0   39    0   0.1716062900 AA  
    7    0   63    0  -0.1600380362 AA  
    7    7  140   36  -0.1526738122 ABAB
  norm of converged amps    1.56810738776923     
 Starting iterative solution of the perturbed Lambda equations.
 The DIIS procedure is used to accelerate convergence.
 Convergence criterion is 10**(-7).
 Maximum number of iterations is 100.
 Convergence information after     1 iterations: 
 Largest element of residual vector :  0.75810905E-01.
 Largest element of DIIS residual   :  0.75810905E-01.
 Convergence information after     2 iterations: 
 Largest element of residual vector :  0.21037792E-01.
 Largest element of DIIS residual   :  0.14918200E-01.
 Convergence information after     3 iterations: 
 Largest element of residual vector :  0.68279260E-02.
 Largest element of DIIS residual   :  0.56244744E-02.
 Convergence information after     4 iterations: 
 Largest element of residual vector :  0.29343558E-02.
 Largest element of DIIS residual   :  0.28275307E-02.
 Convergence information after     5 iterations: 
 Largest element of residual vector :  0.29516094E-02.
 Largest element of DIIS residual   :  0.26236253E-02.
 Convergence information after     6 iterations: 
 Largest element of residual vector :  0.18150266E-02.
 Largest element of DIIS residual   :  0.96703707E-03.
 Convergence information after     7 iterations: 
 Largest element of residual vector :  0.10503573E-02.
 Largest element of DIIS residual   :  0.50883580E-03.
 Convergence information after     8 iterations: 
 Largest element of residual vector :  0.39585792E-03.
 Largest element of DIIS residual   :  0.19336863E-03.
 Convergence information after     9 iterations: 
 Largest element of residual vector :  0.16119754E-03.
 Largest element of DIIS residual   :  0.10034867E-03.
 Convergence information after    10 iterations: 
 Largest element of residual vector :  0.11797270E-03.
 Largest element of DIIS residual   :  0.82681883E-04.
 Convergence information after    11 iterations: 
 Largest element of residual vector : -0.41152150E-04.
 Largest element of DIIS residual   : -0.22128669E-04.
 Convergence information after    12 iterations: 
 Largest element of residual vector :  0.31315519E-04.
 Largest element of DIIS residual   :  0.15899292E-04.
 Convergence information after    13 iterations: 
 Largest element of residual vector :  0.91854370E-05.
 Largest element of DIIS residual   :  0.68052011E-05.
 Convergence information after    14 iterations: 
 Largest element of residual vector :  0.84200944E-05.
 Largest element of DIIS residual   :  0.40808161E-05.
 Convergence information after    15 iterations: 
 Largest element of residual vector :  0.47119379E-05.
 Largest element of DIIS residual   :  0.24622249E-05.
 Convergence information after    16 iterations: 
 Largest element of residual vector :  0.19179565E-05.
 Largest element of DIIS residual   :  0.56353932E-06.
 Convergence information after    17 iterations: 
 Largest element of residual vector :  0.11060761E-05.
 Largest element of DIIS residual   :  0.54697107E-06.
 Convergence information after    18 iterations: 
 Largest element of residual vector :  0.27309649E-06.
 Largest element of DIIS residual   : -0.17836192E-06.
 Convergence information after    19 iterations: 
 Largest element of residual vector :  0.24585448E-06.
 Largest element of DIIS residual   :  0.12319266E-06.
 Convergence information after    20 iterations: 
 Largest element of residual vector : -0.83124456E-07.
 Largest element of DIIS residual   :  0.63975779E-07.
 Perturbed Lambda equations converged in    20 iterations.
  Dominant contributions to perturbed wavefunction:
    7    7  140   22  -0.1477039743 ABAB
    7    7   22  140  -0.1477039743 ABAB
    7    7  140   46  -0.1455487956 ABAB
    7    7   46  140  -0.1455487956 ABAB
    7    7  140   32  -0.1256097431 ABAB
    7    7   32  140  -0.1256097431 ABAB
    7    0   46    0   0.0995579347 AA  
    7    7  140   36  -0.0985097759 ABAB
    7    7   36  140  -0.0985097759 ABAB
    7    6   22   89  -0.0937728704 ABAB
    6    7   89   22  -0.0937728704 ABAB
    7    6   46   89  -0.0935122162 ABAB
    6    7   89   46  -0.0935122162 ABAB
    7    7  140   16   0.0925349310 ABAB
    7    7   16  140   0.0925349310 ABAB
    7    7  140   56  -0.0920740566 ABAB
    7    7   56  140  -0.0920740566 ABAB
    7    7  140   28  -0.0903643739 ABAB
    7    7   28  140  -0.0903643739 ABAB
    7    7  140   39  -0.0858055049 ABAB
        The DBOC first-order density matrix is being calculated 
             (Symmetry block 3, perturbation   2)
 term   2.59870460470984     
 final tnorm  0.642627245973811     
  norm contr. I: |<0|L dT/dx|0>|^2   0.000000000000000E+000
  norm contr. II: <0|[nabla(1+L)e-T][nabla e^T]|0>   2.59870460470984     
  total norm contribution   2.59870460470984     
 oo  1.210117477350493E-002
 vv  -17.2453922253670     
 vo -2.541155162683060E-002
  Correlated perturbed 1-el contribution to DBOC  -17.2587026022203       cm**-1
  SUM_I |dc_I/dx|^2 contribution to DBOC   8.69370316575647       cm**-1
 
 
  The total diagonal Born-Oppenheimer correction (DBOC) is:      0.0038650127 a.u.
  The total diagonal Born-Oppenheimer correction (DBOC) is:        848.272242 cm-1
 
 Total CC energy including DBOC  -113.002312709170     
 First-order density matrix is being calculated  (Symmetry block 3, perturbation   2)
 Calculation of the contributions of <pq||rs> to dI(i,j)/dx required   3.2 seconds.
 Calculation of the contributions of <pq||rs> to dI(a,b)/dx required  15.7 seconds.
 Calculation of the contributions of <pq||rs> to dI(i,a)/dx required   9.2 seconds.
 First-order Z-vector equations are solved for 1 perturbation.
 Convergence reached after  20 iterations.
        U*G(pq,rs) contribution is being calculated
             (Symmetry block 3, perturbation   2)

 CCSD contribution to force constants 

        0.0000000000        0.0000000000        0.0000000000
        0.0000000000        0.0000000000        0.0000000000
        0.0000000000        0.0000000000        0.0000000000
        0.0000000000        0.0000000000        0.0000000000
        0.0000000000        0.0000000000        0.0000000000
        0.0000000000        0.0000000000        0.0000000000
        0.0000000000        0.0000000000        0.0000000000
        0.0000000000        0.0000000000        0.0000000000
        0.0000000000        0.0000000000        0.0000000000
        0.0000000000        0.0000000000        0.0000000000
        0.0000000000        0.0000000000        0.0000000000
        0.0000000000      -11.1650575038       11.1650575038

 CCSD contribution to dipole derivatives 

        0.0000000000        0.0000000000        0.0000000000
        0.0000000000        0.0000000000        0.0000000000
        0.0000000000        0.0000000000        0.0000000000
        0.0000000000        0.0000000000       -0.0549615358
        0.0000000000        0.0000000000        0.0000000000
        0.0000000000        0.0000000000        0.0000000000
 @CHECKOUT-I, Total execution time (CPU/WALL):     1299.99/     451.38 seconds.
--executable xsdcc finished with status     0 in      451.58 seconds (walltime).
 --invoking executable--
/nfs/workspaces/public/cfour_mpi/bin/xanti
 @GETMEM-I,  Allocated    3814 MB of main memory.
 CCSD MO derivative gammas will be sorted to Mulliken order.
 @CHECKOUT-I, Total execution time (CPU/WALL):       12.38/      23.33 seconds.
--executable xanti finished with status     0 in       23.48 seconds (walltime).
 --invoking executable--
/nfs/workspaces/public/cfour_mpi/bin/xbcktrn
 @GETMEM-I,  Allocated    3814 MB of main memory.
 CCSD MO derivative gammas will be transformed to the AO basis.
 @CHECKOUT-I, Total execution time (CPU/WALL):       21.54/       8.00 seconds.
--executable xbcktrn finished with status     0 in        8.07 seconds (walltime).
 --invoking executable--
/nfs/workspaces/public/cfour_mpi/bin/xvdint
 @GETMEM-I,  Allocated    3814 MB of main memory.
 One- and two-electron integral derivatives are calculated
 for RHF-CC/MBPT hessians and dipole derivatives.
 Spherical gaussians are used.
  magnet F F
                    8722  records have been written to the Sort file.
  Total length of Sort file :             178609116  words.
 Evaluation of 2el integral derivatives

                      Two-electron integral gradient
                      ------------------------------

                         C #1 z     0.0000000000
                         O #2 z     0.0000000000


 C #1       0.0000000000            0.0616742182            0.0000000000
 O #2       0.0000000000           -0.0616742182            0.0000000000


 Evaluation of 2e integral derivatives required  317.68 seconds.
  contribution to Hessian
        0.0000000000        0.0000000000        0.0000000000
        0.0000000000        0.0616742182       -0.0616742182
 @CHECKOUT-I, Total execution time (CPU/WALL):      317.66/      80.60 seconds.
--executable xvdint finished with status     0 in       80.76 seconds (walltime).
 --invoking executable--
/nfs/workspaces/public/cfour_mpi/bin/xanti
 @GETMEM-I,  Allocated    3814 MB of main memory.
 CCSD MO gammas will be sorted to Mulliken order.
 @CHECKOUT-I, Total execution time (CPU/WALL):       16.51/      47.80 seconds.
--executable xanti finished with status     0 in       47.92 seconds (walltime).
 --invoking executable--
/nfs/workspaces/public/cfour_mpi/bin/xbcktrn
 @GETMEM-I,  Allocated    3814 MB of main memory.
 CCSD MO gammas will be transformed to the AO basis.
 @CHECKOUT-I, Total execution time (CPU/WALL):       61.67/      19.15 seconds.
--executable xbcktrn finished with status     0 in       19.20 seconds (walltime).
 --invoking executable--
/nfs/workspaces/public/cfour_mpi/bin/xvdint
 @GETMEM-I,  Allocated    3814 MB of main memory.
 One- and two-electron integral derivatives are calculated
 for RHF-CC/MBPT hessians and dipole derivatives.
 Spherical gaussians are used.
  magnet F F

                     Kinetic energy integral gradient
                     --------------------------------

                         C #1 z    -0.3696701564
                         O #2 z     0.3696701564


 C #1       0.0000000000            0.0000000000           -0.3696701564
 O #2       0.0000000000            0.0000000000            0.3696701564



                   Nuclear attraction integral gradient
                   ------------------------------------

                         C #1 z    11.4271032387
                         O #2 z   -11.4271032387


 C #1       0.0000000000            0.0000000000           11.4271032387
 O #2       0.0000000000            0.0000000000          -11.4271032387



                      Reorthonormalization gradient
                      -----------------------------

                         C #1 z     0.0000000000
                         O #2 z     0.0000000000


 C #1       0.0000000000            0.0000000000            0.0000000000
 O #2       0.0000000000            0.0000000000            0.0000000000



                     Kinetic energy integral Hessian
                     -------------------------------


           Symmetry 1

           C #1 z      O #2 z

 C #1 z    0.394034
 O #2 z   -0.394034    0.394034


           Symmetry 2

           C #1 x      O #2 x

 C #1 x   -0.239194
 O #2 x    0.239194   -0.239194


           Symmetry 3

           C #1 y      O #2 y

 C #1 y   -0.239194
 O #2 y    0.239194   -0.239194




           C #1 x      C #1 y      C #1 z      O #2 x      O #2 y      O #2 z

 C #1 x   -0.239194
 C #1 y    0.000000   -0.239194
 C #1 z    0.000000    0.000000    0.394034

 O #2 x    0.239194    0.000000    0.000000   -0.239194
 O #2 y    0.000000    0.239194    0.000000    0.000000   -0.239194
 O #2 z    0.000000    0.000000   -0.394034    0.000000    0.000000    0.394034




                   Nuclear attraction integral Hessian
                   -----------------------------------


           Symmetry 1

           C #1 z      O #2 z

 C #1 z   -6.723199
 O #2 z    6.723199   -6.723199


           Symmetry 2

           C #1 x      O #2 x

 C #1 x    5.245972
 O #2 x   -5.245972    5.245972


           Symmetry 3

           C #1 y      O #2 y

 C #1 y    5.245972
 O #2 y   -5.245972    5.245972




           C #1 x      C #1 y      C #1 z      O #2 x      O #2 y      O #2 z

 C #1 x    5.245972
 C #1 y    0.000000    5.245972
 C #1 z    0.000000    0.000000   -6.723199

 O #2 x   -5.245972    0.000000    0.000000    5.245972
 O #2 y    0.000000   -5.245972    0.000000    0.000000    5.245972
 O #2 z    0.000000    0.000000    6.723199    0.000000    0.000000   -6.723199




                Highest order reorthonormalization Hessian
                ------------------------------------------


           Symmetry 1

           C #1 z      O #2 z

 C #1 z    0.000000
 O #2 z    0.000000    0.000000


           Symmetry 2

           C #1 x      O #2 x

 C #1 x    0.000000
 O #2 x    0.000000    0.000000


           Symmetry 3

           C #1 y      O #2 y

 C #1 y    0.000000
 O #2 y    0.000000    0.000000




           C #1 x      C #1 y      C #1 z      O #2 x      O #2 y      O #2 z




                Electronic contributions to dipole moment
                -----------------------------------------

                               au             Debye

                    z     -0.73444870     -1.86678271

  Conversion factor used: 1 a.u. =   2.54174691 Debye 



   Electronic contributions to static part of dipole moment derivatives
   --------------------------------------------------------------------


                     Total dipole moment derivatives
                     -------------------------------


           Symmetry 1
                              Ez

               C #1 z    -5.64630745
               O #2 z    -8.35369255

           Symmetry 2
                              Ex

               C #1 x    -5.69577795
               O #2 x    -8.30422205

           Symmetry 3
                              Ey

               C #1 y    -5.69577795
               O #2 y    -8.30422205



                       Ex          Ey          Ez

      C #1    x   -5.695778    0.000000    0.000000
      C #1    y    0.000000   -5.695778    0.000000
      C #1    z    0.000000    0.000000   -5.646307

      O #2    x   -8.304222    0.000000    0.000000
      O #2    y    0.000000   -8.304222    0.000000
      O #2    z    0.000000    0.000000   -8.353693

 Evaluation of 1e integral derivatives required    1.66 seconds.
                    8815  records have been written to the Sort file.
  Total length of Sort file :             180513570  words.
 Evaluation of 2el integral derivatives

                      Two-electron integral gradient
                      ------------------------------

                         C #1 z    -6.2702386572
                         O #2 z     6.2702386572


 C #1       0.0000000000            0.0000000000           -6.2702386572
 O #2       0.0000000000            0.0000000000            6.2702386572


 Evaluation of 2e integral derivatives required  617.44 seconds.

                            Molecular gradient
                            ------------------

                         C #1 z     0.4917847913
                         O #2 z    -0.4917847913


 C #1       0.0000000000            0.0000000000            0.4917847913
 O #2       0.0000000000            0.0000000000           -0.4917847913


  Molecular gradient norm 0.695E+00

                            Molecular hessian
                            -----------------


           Symmetry 1

           C #1 z      O #2 z

 C #1 z    6.708449
 O #2 z   -6.708449    6.708449


           Symmetry 2

           C #1 x      O #2 x

 C #1 x   11.324877
 O #2 x  -11.324877   11.324877


           Symmetry 3

           C #1 y      O #2 y

 C #1 y   11.324877
 O #2 y  -11.324877   11.324877




           C #1 x      C #1 y      C #1 z      O #2 x      O #2 y      O #2 z

 C #1 x   11.324877
 C #1 y    0.000000   11.324877
 C #1 z    0.000000    0.000000    6.708449

 O #2 x  -11.324877    0.000000    0.000000   11.324877
 O #2 y    0.000000  -11.324877    0.000000    0.000000   11.324877
 O #2 z    0.000000    0.000000   -6.708449    0.000000    0.000000    6.708449




                           Total dipole moment
                           -------------------

                               au             Debye

                    z      0.60217173      1.53056815

  Conversion factor used: 1 a.u. =   2.54174691 Debye 



                     Total dipole moment derivatives
                     -------------------------------


           Symmetry 1
                              Ez

               C #1 z     0.37360222
               O #2 z    -0.37360222

           Symmetry 2
                              Ex

               C #1 x     0.19477795
               O #2 x    -0.19477795

           Symmetry 3
                              Ey

               C #1 y     0.19477795
               O #2 y    -0.19477795



                       Ex          Ey          Ez

      C #1    x    0.194778    0.000000    0.000000
      C #1    y    0.000000    0.194778    0.000000
      C #1    z    0.000000    0.000000    0.373602

      O #2    x   -0.194778    0.000000    0.000000
      O #2    y    0.000000   -0.194778    0.000000
      O #2    z    0.000000    0.000000   -0.373602

 @CHECKOUT-I, Total execution time (CPU/WALL):      619.08/     105.19 seconds.
--executable xvdint finished with status     0 in      105.38 seconds (walltime).
 --invoking executable--
/nfs/workspaces/public/cfour_mpi/bin/xjoda
  @GTFLGS-I, Hessian will be transformed to curvilinear coordinates.
  @GTFLGS-I, Hessian will be transformed to curvilinear coordinates.
  igrd and ihes are                      0                     1
  gradient from JOBARC 
   0.000000000000000   0.000000000000000   0.491784791296586
   0.000000000000000   0.000000000000000  -0.491784791296586
 
  @PROJFCM-I, Projecting force constant matrix onto totally symmetric subspace.
  Largest difference between matrix elements of symmetrized
  and unsymmetrized FCM :     0.9769962617E-13.
  read isotopes from ZMAT file 
 
  Summary of diagonal Born-Oppenheimer correction at the correlated level
  The total diagonal Born-Oppenheimer correction (DBOC) is:      0.0038650127 a.u.
  The total diagonal Born-Oppenheimer correction (DBOC) is:        848.272242 cm-1
  The total diagonal Born-Oppenheimer correction (DBOC) is:            10.148 kJ/mole
  hellooooooo 
  readis is  F
 
 @CHECKOUT-I, Total execution time (CPU/WALL):        0.02/       0.08 seconds.
--executable xjoda finished with status     0 in        0.18 seconds (walltime).
  The final electronic energy is      -113.002312709170397 a.u. 
  This computation required                         4128.21 seconds (walltime).
