 --invoking executable--
/nfs/workspaces/public/cfour_mpi/bin/xjoda


   *************************************************************************
         <<<     CCCCCC     CCCCCC   |||     CCCCCC     CCCCCC   >>>
       <<<      CCC        CCC       |||    CCC        CCC         >>>
      <<<      CCC        CCC        |||   CCC        CCC            >>>
    <<<        CCC        CCC        |||   CCC        CCC              >>>
      <<<      CCC        CCC        |||   CCC        CCC            >>>
       <<<      CCC        CCC       |||    CCC        CCC         >>>
         <<<     CCCCCC     CCCCCC   |||     CCCCCC     CCCCCC   >>>
   *************************************************************************

     ****************************************************************
     * CFOUR Coupled-Cluster techniques for Computational Chemistry *
     ****************************************************************
 

   Department of Chemistry                Institut fuer Physikalische Chemie
   University of Florida                  Universitaet Mainz
   Gainesville, FL 32611, USA             D-55099 Mainz, Germany

   Department of Chemistry                Fakultaet fuer Chemie und Biowiss.
   Johns Hopkins University               Karlsruher Institut fuer Technologie
   Baltimore, MD 21218, USA               D-76131 Karlsruhe, Germany

   Department of Chemistry                Department of Physical Chemistry
   Southern Methodist University          Eotvos Lorand University
   Dallas, TX 75275, USA                  H-1053 Budapest, Hungary

 
                       Version 2.1
 
                     vincent.theory.phys.ucl.ac.uk                     
                     Sat  1 Mar 14:38:42 GMT 2025                      
                     integer*8 version is running
 
********************************************************************************
*                          Input from ZMAT file                                *
********************************************************************************
Carbon Monoxide DBOC calculation                                                
C                                                                               
O 1 r                                                                           
                                                                                
r=1.0551724137931036                                                            
                                                                                
                                                                                
*CFOUR(CALC=CCSD,BASIS=AUG-PCVQZ,SCF_CONV=10                                    
CC_CONV=14,DBOC=ON,MEMORY=500000000                                             
ZFIELD=-200)                                                                    
                                                                                
%isotopes                                                                       
12                                                                              
18                                                                              
********************************************************************************
  @GTFLGS-I, Hessian will be transformed to curvilinear coordinates.
    -------------------------------------------------------------------
                    CFOUR Control Parameters 
    -------------------------------------------------------------------
        External           Internal           Value            Units
          Name               Name
    -------------------------------------------------------------------
       ABCDTYPE             IABCDT         STANDARD    [  0]    ***   
       ANHARMONIC           IANHAR         OFF         [  0]    ***   
       ANH_ALGORIT          IANALG         STANDARD    [  0]    ***   
       ANH_DERIVAT          IANDER         SECOND      [  1]    ***   
       ANH_MODE             ANHMOD         VIBRATION   [  0]    ***   
       ANH_STEPSIZ          ICUBST             50000          x 10-6  
       ANH_SYMMETR          IANHSM         ABELIAN     [  0]    ***   
       AO_LADDERS           IAOLAD         SINGLEPASS  [  1]    ***   
       AV_SCF               IAVSCF         OFF         [  0]    ***   
       BASIS                IBASIS         AUG-PCVQZ   [ 52]    ***   
       BOTHVECTORS          BOTHVC         OFF         [  0]    ***   
       BOX_POTENT           IPIAB          OFF         [  0]    ***   
       BREIT                IBREIT         OFF         [  0]    ***   
       BRUCK_CONV           IBRTOL          10D-  4             ***   
       BRUECKNER            IBRKNR         OFF         [  0]    ***   
       BUFFERSIZE           IBUFFS              4096            ***   
       CACHE_RECS           ICHREC             10               ***   
       CALCLEVEL            ICLLVL         CCSD        [ 10]    ***   
       CCORBOPT             ICCORB         OFF         [  0]  x 0.01  
       CC_CONV              ICCCNV          10D- 14             ***   
       CC_EXPORDER          ICCEOR              5               ***   
       CC_EXTRAPOL          ICCEXT         DIIS        [  1]    ***   
       CC_GUESS             ICCGES         MP2         [  0]    ***   
       CC_MAXCYC            ICCCYC            100              cycles 
       CC_PROGRAM           ICCPRO         VCC         [  0]    ***   
       CHARGE               ICHRGE              0               ***   
       CHOLESKY             ICHOLE         OFF         [  0]    ***   
       CIS_CONV             ICISTL              5               ***   
       COMM_SIZE            IPSIZE            ***               ***   
       CONSTANT             ICONST         OLD         [  1]    ***   
       CONTINUUM            ICONTU         NONE        [  0]    ***   
       CONTRACTION          ICNTYP         GENERAL     [  1]    ***   
       COORDINATES          ICOORD         INTERNAL    [  0]    ***   
       CPHF_CONVER          ICPHFT          10D- 16             ***   
       CPHF_MAXCYC          ICPHFC             64              cycles 
       CUBIC                ICUBIC         OFF         [  0]    ***   
       CURVILINEAR          ICURVY         ON          [  1]    ***   
       DBOC                 IDBOC          ON          [  1]    ***   
       DCT                  IDCT           OFF         [  0]    ***   
       DERIV_LEV            IDRLVL         SECOND      [  2]    ***   
       DEVMEM_SIZE          IDVMEM          50000000           MByte  
       DIAG_MRCC            IEOMST          10D-  0             ***   
       DIFF_TYPE            IDIFTY         RELAXED     [  0]    ***   
       DIRECT               IDIRCT         OFF         [  0]    ***   
       DROPMO               IDRPMO      NONE         
       ECP                  IECP           OFF         [  0]    ***   
       EIGENVECTOR          IVEC                1               ***   
       EL_ANHARM            IELANH         OFF         [  0]    ***   
       EOMFOLLOW            IEOMSR         ENERGY      [  0]    ***   
       EOMIP                IEOMIP         OFF         [  0]    ***   
       EOMLEVEL             HBARFM         SAME        [  0]    ***   
       EOM_MRCC             IMRCCE         NEW         [  1]    ***   
       EOM_NONIT            EOMNON         OFF         [  0]    ***   
       EOM_NSING            IEOMSI          10D-  0             ***   
       EOM_NSTATES          IMRCCD         DAVIDSON    [  0]    ***   
       EOM_NTRIP            IEOMTR          10D-  0             ***   
       EOM_ORDER            IEXORD         ENERGY      [  0]    ***   
       EOM_PROPSTA          IEOMST              0               ***   
       ESTATE_CONV          IEXTOL          10D-  5             ***   
       ESTATE_DIAG          IEXDIG         ITERATIVE   [  0]    ***   
       ESTATE_LOCK          IESLOC         ON          [  1]    ***   
       ESTATE_MAXC          IEXMXC             40               ***   
       ESTATE_PROP          IEXPRP         OFF         [  0]    ***   
       EVAL_HESS            IRECAL              0            # of cyc.
       EXCITATION           IEXCIT              0               ***   
       EXCITE               IEXCIT         NONE        [  0]    ***   
       EXTERN_POT           IEXPOT         OFF         [  0]    ***   
       FCGRADNEW            IFCGNW         OFF         [  0]    ***   
       FC_FIELD             IFINFC              0             x 10-6  
       FD_CALTYPE           IFDCAL         GRADONLY    [  0]    ***   
       FD_PROJECT           IFDPRJ         OFF         [  1]    ***   
       FD_STEPSIZE          IDISFD              0            10-4 bohr
       FD_USEGROUP          IFDGRP         FULL        [  0]    ***   
       FILE_RECSIZ          IFLREC              4096           words  
       FINITE_PERT          IFIPER              0             x 10-6  
       FIXGEOM              IFIXGM         OFF         [  0]    ***   
       FOCK                 IFOCK          AO          [  1]    ***   
       FREQ_ALGORI          IVIALG         STANDARD    [  0]    ***   
       FROZEN_CORE          IFROCO         OFF         [  0]    ***   
       GAMMA_ABCD           IGABCD         STORE       [  0]    ***   
       GAMMA_ABCI           IGABCI         STORE       [  0]    ***   
       GENBAS_1             IGNBS1              0               ***   
       GENBAS_2             IGNBS2              0               ***   
       GENBAS_3             IGNBS3              0               ***   
       GENBAS_4             IGNBS4              0               ***   
       GEO_CONV             ICONTL              5              H/bohr 
       GEO_MAXCYC           IOPTCY             50               ***   
       GEO_MAXSTEP          IMXSTP            300            millibohr
       GEO_METHOD           INR            SINGLE_POINT[  5]    ***   
       GIAO                 IGIAO          OFF         [  1]    ***   
       GIMIC                IGIMIC         OFF         [  0]    ***   
       GRID                 IGRID          OFF         [  0]    ***   
       GRID_ALGO            IGALGO         SERIAL      [  0]    ***   
       GUESS                IGUESS         MOREAD      [  0]    ***   
       HBAR                 IHBAR          OFF         [  0]    ***   
       HESS_TYPE            IHESTP         SCF         [  0]    ***   
       HF2_FILE             IHF2Fl         USE         [  1]    ***   
       HFSTABILITY          ISTABL         OFF         [  0]    ***   
       INCORE               INCORE         OFF         [  0]    ***   
       INPUT_MRCC           IMRCC          ON          [  1]    ***   
       INTEGRALS            INTTYP         VMOL        [  1]    ***   
       JODA_PRINT           IJPRNT              0               ***   
       KEYWORD_OUT          IDMPKW         NO          [  0]    ***   
       LINDEP_TOL           ILINDP              8               ***   
       LINEQ_CONV           IZTACN          10D-  7           cycles  
       LINEQ_EXPOR          ILMAXD              5               ***   
       LINEQ_MAXCY          ILMAXC            100               ***   
       LINEQ_TYPE           ILTYPE         DIIS        [  1]    ***   
       LOCK_ORBOCC          ILOCOC         OFF         [  0]    ***   
       MEMORY_SIZE          IMEMSZ         500000000           words  
       MEM_UNIT             IMEMU          INTEGERWORDS[  0]    ***   
       MRCC                 IMRCCC         OFF         [  0]    ***   
       MULTIPLICTY          IMULTP              1               ***   
       NACOUPLING           IVCOUP         OFF         [  0]    ***   
       NEGEVAL              IDIE           ABORT       [  0]    ***   
       NEWNORM              INEWNO         OFF         [  0]    ***   
       NON-HF               INONHF         OFF         [  0]    ***   
       NTOP_TAMP            ITOPT2             15               ***   
       NUC_MODEL            INUCMO         POINT       [  0]    ***   
       OCCUPATION           IOCCU   ESTIMATED BY SCF 
       OPEN-SHELL           IOPEN          SPIN-ORBITAL[  0]    ***   
       OPTVIB               IOPTVB         OFF         [  0]    ***   
       ORBITALS             IORBTP         STANDARD    [  0]    ***   
       PARALLEL             IPARAL         ON          [  1]    ***   
       PARA_INT             IPINTS         ON          [  1]    ***   
       PARA_PRINT           IPPRIN              0               ***   
       PERT_ORB             IPTORB         STANDARD    [  0]    ***   
       POINTS               IGRDFD              0               ***   
       PRINT                IPRNT               0               ***   
       PROPS                IPROPS         OFF         [  0]    ***   
       PROP_INTEGR          IINTYP         INTERNAL    [  0]    ***   
       PSI                  IPSI           OFF         [  0]    ***   
       QC_ALG               IQCALG         FLM         [  0]    ***   
       QC_LINALG            IQCLIN         TRIDIAG     [  2]    ***   
       QC_MAXCYC            IQCMAX          10D-100           cycles  
       QC_MAXSCFCY          IQCMSC          10D- 15           cycles  
       QC_RTRUST            IQCRTR          10D-  0           x 10-3  
       QC_SKIPSCF           IQCSKI         OFF         [  0]    ***   
       QC_START             IQCSTA          10D-  1             ***   
       QRHFGUESS            IQGUES         OFF         [  0]    ***   
       QUARTIC              IQUART         OFF         [  0]    ***   
       RAMAN_INT            IRAMIN         OFF         [  0]    ***   
       RAMAN_ORB            IRAMRE         UNRELAXED   [  0]    ***   
       RDO                  IRDOFM         ON          [  1]    ***   
       REDUCE_REPR          REDREP         Ir          [  0]    ***   
       REFERENCE            IREFNC         RHF         [  0]    ***   
       RELATIVIST           IRELAT         OFF         [  0]    ***   
       RELAX_DENS           IRDENS         ON          [  1]    ***   
       RESET_FLAGS          IRESET         OFF         [  0]    ***   
       RESTART_CC           ICCRES         OFF         [  0]    ***   
       ROT_EVEC             ROTVEC              0               ***   
       SAVE_INTS            ISVINT         OFF         [  0]    ***   
       SCALE_ON             ISTCRT              0               ***   
       SCF_CONV             ISCFCV          10D- 10             ***   
       SCF_DAMPING          IDAMP               0             x 10-3  
       SCF_EXPORDE          IRPPOR              6               ***   
       SCF_EXPSTAR          IRPPLS              8               ***   
       SCF_EXTRAPO          IRPP           ON          [  1]    ***   
       SCF_MAXCYC           ISCFCY            150              cycles 
       SCF_NOSTOP           ISCFST         OFF         [  0]    ***   
       SCF_PRINT            ISCFPR              0               ***   
       SCF_PROG             ISCFPR         SCF         [  0]    ***   
       SD_FIELD             IFINSD              0             x 10-6  
       SOPERT               IPERSO         OFF         [  0]    ***   
       SPHERICAL            IDFGHI         ON          [  1]    ***   
       SPINORBIT            ISOCAL         OFF         [  0]    ***   
       SPINROTATIO          ISRCON         OFF         [  0]    ***   
       SPIN_FLIP            ISPFLP         OFF         [  0]    ***   
       SPIN_ORBIT           ISPORB         OFF         [  0]    ***   
       SPIN_SCAL            ISCSMP         OFF         [  0]    ***   
       STEEPSCALE           ISTPSC              1000          x 10-3  
       SUBGROUP             ISUBGP         DEFAULT     [  0]    ***   
       SUBGRPAXIS           ISBXYZ         X           [  0]    ***   
       SYMMETRY             ISYM           ON          [  0]    ***   
       SYM_CHECK            ISYMCK         OVERRIDE    [  1]    ***   
       T3_EXTRAPOL          IT3EXT         OFF         [  0]    ***   
       T4_EXTRAPOL          IT4EXP         OFF         [  0]    ***   
       TAMP_SUM             IEVERY              5               ***   
       TESTSUITE            ITESTS         OFF         [  0]    ***   
       THERMOCH             ITHERM         OFF         [  0]    ***   
       TOL_CHOLESK          ITOLCH          10D-  4             ***   
       TRANGRAD             IRESRM         OFF         [  0]    ***   
       TRANS_INV            ITRAIN         IGNORE      [  1]    ***   
       TREAT_PERT           ITREAT         SIMULTANEOUS[  0]    ***   
       TRIP_ALGORI          ITRALG         NORMAL      [  0]    ***   
       UIJ_THRESHO          IUIJTH              1               ***   
       UNITS                IUNITS         ANGSTROM    [  0]    ***   
       UNOS                 IUNOS          OFF         [  0]    ***   
       UPDATE_HESS          IHUPDT         ON          [  1]    ***   
       VIBPHASE             ISETPH         STANDARD    [  0]    ***   
       VIBRATION            IVIB           ANALYTIC    [  1]    ***   
       VIB_ALGORIT          IGEALG         STANDARD    [  0]    ***   
       VNATORB              IVNORB         OFF         [  0]    ***   
       VTRAN                IVTRAN         FULL/PARTIAL[  0]    ***   
       XFIELD               IXEFLD              0             x 10-6  
       XFORM_TOL            IXFTOL          10D- 11             ***   
       YFIELD               IYEFLD              0             x 10-6  
       ZFIELD               IZEFLD            ***             x 10-6  
       ZSCALE_EXP           IZEXPS         OFF         [  0]    ***   
    -------------------------------------------------------------------
   2 entries found in Z-matrix 
   Job Title : Carbon Monoxide DBOC calculation                                                
   There are  1 unique internal coordinates.
   Of these,  0 will be optimized.
   User supplied Z-matrix: 
--------------------------------------------------------------------------------
       SYMBOL    BOND      LENGTH    ANGLE     ANGLE     DIHED     ANGLE
                  TO      (ANGST)    WRT      (DEG)      WRT      (DEG)
--------------------------------------------------------------------------------
        C    
        O          1         r    
                  *Initial values for internal coordinates* 
                      Name             Value
                        r               1.0551724138
--------------------------------------------------------------------------------
  read isotopes from ZMAT file 
   Rotational constants (in cm-1): 
          2.1029323687             2.1029323687
   Rotational constants (in MHz): 
      63044.3352157770         63044.3352157770
********************************************************************************
   The full molecular point group is CXv .
   The largest Abelian subgroup of the full molecular point group is C2v .
   The computational point group is C2v .
********************************************************************************
--------------------------------------------------------------------------------
   Analysis of internal coordinates specified by Z-matrix 
--------------------------------------------------------------------------------
   *The nuclear repulsion energy is   24.072370039215681 a.u.
   *There is   1 degree of freedom within the tot. symm. molecular subspace.
   *Z-matrix requests optimization of   0 coordinates.
   *The optimization is constrained.
   *The following   1 parameters can have non-zero 
    derivatives within the totally symmetric subspace:
             r    [ 1]
   *The following   0 parameters are to be optimized:

   *The following coordinates must be varied in an  unconstrained optimization.
             r    [ 1]
--------------------------------------------------------------------------------


 ----------------------------------------------------------------
         Coordinates used in calculation (QCOMP) 
 ----------------------------------------------------------------
 Z-matrix   Atomic            Coordinates (in bohr)
  Symbol    Number           X              Y              Z
 ----------------------------------------------------------------
     C         6        -0.00000000     0.00000000     1.19637005
     O         8         0.00000000     0.00000000    -0.79761724
 ----------------------------------------------------------------
 
   Interatomic distance matrix (Angstroms) 
 
                 C             O    
                [ 1]        [ 2]
  C    [ 1]     0.00000
  O    [ 2]     1.05517     0.00000
 rotcon2
   Rotational constants (in cm-1): 
          2.1029323687             0.0000000000
   Rotational constants (in MHz): 
      63044.3352157770             0.0000000000
  ECPDATA file not present.   Using default ECPDATA. 
  @GTFLGS-I, Hessian will be transformed to curvilinear coordinates.
  There are  218 basis functions.
 @CHECKOUT-I, Total execution time (CPU/WALL):        0.24/       0.31 seconds.
--executable xjoda finished with status     0 in        0.41 seconds (walltime).
 --invoking executable--
/nfs/workspaces/public/cfour_mpi/bin/xvmol
 SERIAL VERSION OF MOLECULE STARTED
********************************************************************************
                    INPUT FROM MOL FILE
********************************************************************************
INTGRL        1    0    1    0    0    0    0    0    0                         
         *** CFOUR Program System (Release V0.1) ***                            
Carbon Monoxide DBOC calculation                                                
    2    2 X  Y       0.10E-08              0    0                              
   9999.00      3.00                                                            
          6.00000000    1    5    1    1    1    1    1                         
C #1  -0.000000000000000   0.000000000000000   1.196370051226408                
   16    9                                                                      
   33980.0000000000       9.100000000000000E-005 -1.900000000000000E-005        
  0.000000000000000E+000  0.000000000000000E+000  0.000000000000000E+000        
  0.000000000000000E+000  0.000000000000000E+000  0.000000000000000E+000        
  0.000000000000000E+000                                                        
   5089.00000000000       7.040000000000000E-004 -1.510000000000000E-004        
  0.000000000000000E+000  0.000000000000000E+000  0.000000000000000E+000        
  0.000000000000000E+000  0.000000000000000E+000  0.000000000000000E+000        
  0.000000000000000E+000                                                        
   1157.00000000000       3.693000000000000E-003 -7.850000000000000E-004        
  0.000000000000000E+000  0.000000000000000E+000  0.000000000000000E+000        
  0.000000000000000E+000  0.000000000000000E+000  0.000000000000000E+000        
  0.000000000000000E+000                                                        
   326.600000000000       1.536000000000000E-002 -3.324000000000000E-003        
  0.000000000000000E+000  0.000000000000000E+000  0.000000000000000E+000        
  0.000000000000000E+000  0.000000000000000E+000  0.000000000000000E+000        
  0.000000000000000E+000                                                        
   106.100000000000       5.292900000000000E-002 -1.151200000000000E-002        
  0.000000000000000E+000  0.000000000000000E+000  0.000000000000000E+000        
  0.000000000000000E+000  0.000000000000000E+000  0.000000000000000E+000        
  0.000000000000000E+000                                                        
   38.1100000000000       0.147043000000000      -3.416000000000000E-002        
  0.000000000000000E+000  0.000000000000000E+000  0.000000000000000E+000        
  0.000000000000000E+000  0.000000000000000E+000  0.000000000000000E+000        
  0.000000000000000E+000                                                        
   14.7500000000000       0.305631000000000      -7.717300000000001E-002        
  0.000000000000000E+000  0.000000000000000E+000  0.000000000000000E+000        
  0.000000000000000E+000  0.000000000000000E+000  0.000000000000000E+000        
  0.000000000000000E+000                                                        
   6.03500000000000       0.399345000000000      -0.141493000000000             
  0.000000000000000E+000  0.000000000000000E+000  0.000000000000000E+000        
  0.000000000000000E+000  0.000000000000000E+000  0.000000000000000E+000        
  0.000000000000000E+000                                                        
   2.53000000000000       0.217051000000000      -0.118019000000000             
  0.000000000000000E+000  0.000000000000000E+000  0.000000000000000E+000        
  0.000000000000000E+000  0.000000000000000E+000  0.000000000000000E+000        
  0.000000000000000E+000                                                        
  0.735500000000000       1.589400000000000E-002  0.273806000000000             
   1.00000000000000       0.000000000000000E+000  0.000000000000000E+000        
  0.000000000000000E+000  0.000000000000000E+000  0.000000000000000E+000        
  0.000000000000000E+000                                                        
  0.290500000000000      -3.084000000000000E-003  0.586510000000000             
  0.000000000000000E+000   1.00000000000000       0.000000000000000E+000        
  0.000000000000000E+000  0.000000000000000E+000  0.000000000000000E+000        
  0.000000000000000E+000                                                        
  0.111100000000000       9.779999999999999E-004  0.285430000000000             
  0.000000000000000E+000  0.000000000000000E+000   1.00000000000000             
  0.000000000000000E+000  0.000000000000000E+000  0.000000000000000E+000        
  0.000000000000000E+000                                                        
   7.21600000000000       0.000000000000000E+000  0.000000000000000E+000        
  0.000000000000000E+000  0.000000000000000E+000  0.000000000000000E+000        
   1.00000000000000       0.000000000000000E+000  0.000000000000000E+000        
  0.000000000000000E+000                                                        
   19.5700000000000       0.000000000000000E+000  0.000000000000000E+000        
  0.000000000000000E+000  0.000000000000000E+000  0.000000000000000E+000        
  0.000000000000000E+000   1.00000000000000       0.000000000000000E+000        
  0.000000000000000E+000                                                        
   53.0730000000000       0.000000000000000E+000  0.000000000000000E+000        
  0.000000000000000E+000  0.000000000000000E+000  0.000000000000000E+000        
  0.000000000000000E+000  0.000000000000000E+000   1.00000000000000             
  0.000000000000000E+000                                                        
  4.145000000000000E-002  0.000000000000000E+000  0.000000000000000E+000        
  0.000000000000000E+000  0.000000000000000E+000  0.000000000000000E+000        
  0.000000000000000E+000  0.000000000000000E+000  0.000000000000000E+000        
   1.00000000000000                                                             
   10    8                                                                      
   34.5100000000000       5.378000000000000E-003  0.000000000000000E+000        
  0.000000000000000E+000  0.000000000000000E+000  0.000000000000000E+000        
  0.000000000000000E+000  0.000000000000000E+000  0.000000000000000E+000        
   7.91500000000000       3.613200000000000E-002  0.000000000000000E+000        
  0.000000000000000E+000  0.000000000000000E+000  0.000000000000000E+000        
  0.000000000000000E+000  0.000000000000000E+000  0.000000000000000E+000        
   2.36800000000000       0.142493000000000       0.000000000000000E+000        
  0.000000000000000E+000  0.000000000000000E+000  0.000000000000000E+000        
  0.000000000000000E+000  0.000000000000000E+000  0.000000000000000E+000        
  0.813200000000000       0.342150000000000        1.00000000000000             
  0.000000000000000E+000  0.000000000000000E+000  0.000000000000000E+000        
  0.000000000000000E+000  0.000000000000000E+000  0.000000000000000E+000        
  0.289000000000000       0.463864000000000       0.000000000000000E+000        
   1.00000000000000       0.000000000000000E+000  0.000000000000000E+000        
  0.000000000000000E+000  0.000000000000000E+000  0.000000000000000E+000        
  0.100700000000000       0.250028000000000       0.000000000000000E+000        
  0.000000000000000E+000   1.00000000000000       0.000000000000000E+000        
  0.000000000000000E+000  0.000000000000000E+000  0.000000000000000E+000        
   8.18200000000000       0.000000000000000E+000  0.000000000000000E+000        
  0.000000000000000E+000  0.000000000000000E+000   1.00000000000000             
  0.000000000000000E+000  0.000000000000000E+000  0.000000000000000E+000        
   24.1860000000000       0.000000000000000E+000  0.000000000000000E+000        
  0.000000000000000E+000  0.000000000000000E+000  0.000000000000000E+000        
   1.00000000000000       0.000000000000000E+000  0.000000000000000E+000        
   71.4940000000000       0.000000000000000E+000  0.000000000000000E+000        
  0.000000000000000E+000  0.000000000000000E+000  0.000000000000000E+000        
  0.000000000000000E+000   1.00000000000000       0.000000000000000E+000        
  3.218000000000000E-002  0.000000000000000E+000  0.000000000000000E+000        
  0.000000000000000E+000  0.000000000000000E+000  0.000000000000000E+000        
  0.000000000000000E+000  0.000000000000000E+000   1.00000000000000             
    6    6                                                                      
   1.84800000000000        1.00000000000000       0.000000000000000E+000        
  0.000000000000000E+000  0.000000000000000E+000  0.000000000000000E+000        
  0.000000000000000E+000                                                        
  0.649000000000000       0.000000000000000E+000   1.00000000000000             
  0.000000000000000E+000  0.000000000000000E+000  0.000000000000000E+000        
  0.000000000000000E+000                                                        
  0.228000000000000       0.000000000000000E+000  0.000000000000000E+000        
   1.00000000000000       0.000000000000000E+000  0.000000000000000E+000        
  0.000000000000000E+000                                                        
   8.65600000000000       0.000000000000000E+000  0.000000000000000E+000        
  0.000000000000000E+000   1.00000000000000       0.000000000000000E+000        
  0.000000000000000E+000                                                        
   33.2130000000000       0.000000000000000E+000  0.000000000000000E+000        
  0.000000000000000E+000  0.000000000000000E+000   1.00000000000000             
  0.000000000000000E+000                                                        
  7.660000000000000E-002  0.000000000000000E+000  0.000000000000000E+000        
  0.000000000000000E+000  0.000000000000000E+000  0.000000000000000E+000        
   1.00000000000000                                                             
    4    4                                                                      
   1.41900000000000        1.00000000000000       0.000000000000000E+000        
  0.000000000000000E+000  0.000000000000000E+000                                
  0.485000000000000       0.000000000000000E+000   1.00000000000000             
  0.000000000000000E+000  0.000000000000000E+000                                
   24.6940000000000       0.000000000000000E+000  0.000000000000000E+000        
   1.00000000000000       0.000000000000000E+000                                
  0.187000000000000       0.000000000000000E+000  0.000000000000000E+000        
  0.000000000000000E+000   1.00000000000000                                     
    2    2                                                                      
   1.01100000000000        1.00000000000000       0.000000000000000E+000        
  0.424000000000000       0.000000000000000E+000   1.00000000000000             
          8.00000000    1    5    1    1    1    1    1                         
O #2   0.000000000000000   0.000000000000000  -0.797617242995325                
   16    9                                                                      
   61420.0000000000       9.000000000000001E-005 -2.000000000000000E-005        
  0.000000000000000E+000  0.000000000000000E+000  0.000000000000000E+000        
  0.000000000000000E+000  0.000000000000000E+000  0.000000000000000E+000        
  0.000000000000000E+000                                                        
   9199.00000000000       6.980000000000001E-004 -1.590000000000000E-004        
  0.000000000000000E+000  0.000000000000000E+000  0.000000000000000E+000        
  0.000000000000000E+000  0.000000000000000E+000  0.000000000000000E+000        
  0.000000000000000E+000                                                        
   2091.00000000000       3.664000000000000E-003 -8.290000000000000E-004        
  0.000000000000000E+000  0.000000000000000E+000  0.000000000000000E+000        
  0.000000000000000E+000  0.000000000000000E+000  0.000000000000000E+000        
  0.000000000000000E+000                                                        
   590.900000000000       1.521800000000000E-002 -3.508000000000000E-003        
  0.000000000000000E+000  0.000000000000000E+000  0.000000000000000E+000        
  0.000000000000000E+000  0.000000000000000E+000  0.000000000000000E+000        
  0.000000000000000E+000                                                        
   192.300000000000       5.242300000000000E-002 -1.215600000000000E-002        
  0.000000000000000E+000  0.000000000000000E+000  0.000000000000000E+000        
  0.000000000000000E+000  0.000000000000000E+000  0.000000000000000E+000        
  0.000000000000000E+000                                                        
   69.3200000000000       0.145921000000000      -3.626100000000000E-002        
  0.000000000000000E+000  0.000000000000000E+000  0.000000000000000E+000        
  0.000000000000000E+000  0.000000000000000E+000  0.000000000000000E+000        
  0.000000000000000E+000                                                        
   26.9700000000000       0.305258000000000      -8.299200000000000E-002        
  0.000000000000000E+000  0.000000000000000E+000  0.000000000000000E+000        
  0.000000000000000E+000  0.000000000000000E+000  0.000000000000000E+000        
  0.000000000000000E+000                                                        
   11.1000000000000       0.398508000000000      -0.152090000000000             
  0.000000000000000E+000  0.000000000000000E+000  0.000000000000000E+000        
  0.000000000000000E+000  0.000000000000000E+000  0.000000000000000E+000        
  0.000000000000000E+000                                                        
   4.68200000000000       0.216980000000000      -0.115331000000000             
  0.000000000000000E+000  0.000000000000000E+000  0.000000000000000E+000        
  0.000000000000000E+000  0.000000000000000E+000  0.000000000000000E+000        
  0.000000000000000E+000                                                        
   1.42800000000000       1.759400000000000E-002  0.288979000000000             
   1.00000000000000       0.000000000000000E+000  0.000000000000000E+000        
  0.000000000000000E+000  0.000000000000000E+000  0.000000000000000E+000        
  0.000000000000000E+000                                                        
  0.554700000000000      -2.502000000000000E-003  0.586128000000000             
  0.000000000000000E+000   1.00000000000000       0.000000000000000E+000        
  0.000000000000000E+000  0.000000000000000E+000  0.000000000000000E+000        
  0.000000000000000E+000                                                        
  0.206700000000000       9.540000000000000E-004  0.277624000000000             
  0.000000000000000E+000  0.000000000000000E+000   1.00000000000000             
  0.000000000000000E+000  0.000000000000000E+000  0.000000000000000E+000        
  0.000000000000000E+000                                                        
   12.9740000000000       0.000000000000000E+000  0.000000000000000E+000        
  0.000000000000000E+000  0.000000000000000E+000  0.000000000000000E+000        
   1.00000000000000       0.000000000000000E+000  0.000000000000000E+000        
  0.000000000000000E+000                                                        
   34.9000000000000       0.000000000000000E+000  0.000000000000000E+000        
  0.000000000000000E+000  0.000000000000000E+000  0.000000000000000E+000        
  0.000000000000000E+000   1.00000000000000       0.000000000000000E+000        
  0.000000000000000E+000                                                        
   93.8810000000000       0.000000000000000E+000  0.000000000000000E+000        
  0.000000000000000E+000  0.000000000000000E+000  0.000000000000000E+000        
  0.000000000000000E+000  0.000000000000000E+000   1.00000000000000             
  0.000000000000000E+000                                                        
  6.959000000000000E-002  0.000000000000000E+000  0.000000000000000E+000        
  0.000000000000000E+000  0.000000000000000E+000  0.000000000000000E+000        
  0.000000000000000E+000  0.000000000000000E+000  0.000000000000000E+000        
   1.00000000000000                                                             
   10    8                                                                      
   63.4200000000000       6.044000000000000E-003  0.000000000000000E+000        
  0.000000000000000E+000  0.000000000000000E+000  0.000000000000000E+000        
  0.000000000000000E+000  0.000000000000000E+000  0.000000000000000E+000        
   14.6600000000000       4.179900000000000E-002  0.000000000000000E+000        
  0.000000000000000E+000  0.000000000000000E+000  0.000000000000000E+000        
  0.000000000000000E+000  0.000000000000000E+000  0.000000000000000E+000        
   4.45900000000000       0.161143000000000       0.000000000000000E+000        
  0.000000000000000E+000  0.000000000000000E+000  0.000000000000000E+000        
  0.000000000000000E+000  0.000000000000000E+000  0.000000000000000E+000        
   1.53100000000000       0.356731000000000        1.00000000000000             
  0.000000000000000E+000  0.000000000000000E+000  0.000000000000000E+000        
  0.000000000000000E+000  0.000000000000000E+000  0.000000000000000E+000        
  0.530200000000000       0.448309000000000       0.000000000000000E+000        
   1.00000000000000       0.000000000000000E+000  0.000000000000000E+000        
  0.000000000000000E+000  0.000000000000000E+000  0.000000000000000E+000        
  0.175000000000000       0.244940000000000       0.000000000000000E+000        
  0.000000000000000E+000   1.00000000000000       0.000000000000000E+000        
  0.000000000000000E+000  0.000000000000000E+000  0.000000000000000E+000        
   14.4750000000000       0.000000000000000E+000  0.000000000000000E+000        
  0.000000000000000E+000  0.000000000000000E+000   1.00000000000000             
  0.000000000000000E+000  0.000000000000000E+000  0.000000000000000E+000        
   42.7300000000000       0.000000000000000E+000  0.000000000000000E+000        
  0.000000000000000E+000  0.000000000000000E+000  0.000000000000000E+000        
   1.00000000000000       0.000000000000000E+000  0.000000000000000E+000        
   126.140000000000       0.000000000000000E+000  0.000000000000000E+000        
  0.000000000000000E+000  0.000000000000000E+000  0.000000000000000E+000        
  0.000000000000000E+000   1.00000000000000       0.000000000000000E+000        
  5.348000000000000E-002  0.000000000000000E+000  0.000000000000000E+000        
  0.000000000000000E+000  0.000000000000000E+000  0.000000000000000E+000        
  0.000000000000000E+000  0.000000000000000E+000   1.00000000000000             
    6    6                                                                      
   3.77500000000000        1.00000000000000       0.000000000000000E+000        
  0.000000000000000E+000  0.000000000000000E+000  0.000000000000000E+000        
  0.000000000000000E+000                                                        
   1.30000000000000       0.000000000000000E+000   1.00000000000000             
  0.000000000000000E+000  0.000000000000000E+000  0.000000000000000E+000        
  0.000000000000000E+000                                                        
  0.444000000000000       0.000000000000000E+000  0.000000000000000E+000        
   1.00000000000000       0.000000000000000E+000  0.000000000000000E+000        
  0.000000000000000E+000                                                        
   14.9270000000000       0.000000000000000E+000  0.000000000000000E+000        
  0.000000000000000E+000   1.00000000000000       0.000000000000000E+000        
  0.000000000000000E+000                                                        
   57.5440000000000       0.000000000000000E+000  0.000000000000000E+000        
  0.000000000000000E+000  0.000000000000000E+000   1.00000000000000             
  0.000000000000000E+000                                                        
  0.154000000000000       0.000000000000000E+000  0.000000000000000E+000        
  0.000000000000000E+000  0.000000000000000E+000  0.000000000000000E+000        
   1.00000000000000                                                             
    4    4                                                                      
   2.66600000000000        1.00000000000000       0.000000000000000E+000        
  0.000000000000000E+000  0.000000000000000E+000                                
  0.859000000000000       0.000000000000000E+000   1.00000000000000             
  0.000000000000000E+000  0.000000000000000E+000                                
   26.4830000000000       0.000000000000000E+000  0.000000000000000E+000        
   1.00000000000000       0.000000000000000E+000                                
  0.324000000000000       0.000000000000000E+000  0.000000000000000E+000        
  0.000000000000000E+000   1.00000000000000                                     
    2    2                                                                      
   1.84600000000000        1.00000000000000       0.000000000000000E+000        
  0.714000000000000       0.000000000000000E+000   1.00000000000000             
FINISH                                                                          
 
********************************************************************************
 ONE- AND TWO-ELECTRON INTEGRALS OVER SYMMETRY-ADAPTED AOS ARE CALCULATED.

  SPHERICAL HARMONICS ARE USED.
  
  INTEGRALS LESS THAN  0.10E-13 ARE NEGLECTED.

  NUCLEAR REPULSION ENERGY :   24.0723700392 A.U.
  @MOLECU-I, ONE ELECTRON INTEGRALS (CPU/WALL):        0.06/       0.08 SECONDS.
  @TWOEL-I,    4632565 INTEGRALS OF SYMMETRY TYPE  I I I I
  @TWOEL-I,   19851637 INTEGRALS OF SYMMETRY TYPE  I J I J
  @TWOEL-I,   10465227 INTEGRALS OF SYMMETRY TYPE  I I J J
  @TWOEL-I,   14678484 INTEGRALS OF SYMMETRY TYPE  I J K L
  @TWOEL-I, TOTAL NUMBER OF 2-E INTEGRALS   49627913.
  @MOLECU-I, TWO ELECTRON INTEGRALS (CPU/WALL):      242.17/      33.00 SECONDS.
 @CHECKOUT-I, Total execution time (CPU/WALL):      242.24/      33.11 seconds.

Running with 14 threads/proc

--executable xvmol finished with status     0 in       33.19 seconds (walltime).
 --invoking executable--
/nfs/workspaces/public/cfour_mpi/bin/xvmol2ja
 @GETMEM-I,  Allocated    3814 MB of main memory.
 @CHECKOUT-I, Total execution time (CPU/WALL):        0.24/       0.09 seconds.
--executable xvmol2ja finished with status     0 in        0.11 seconds (walltime).
 --invoking executable--
/nfs/workspaces/public/cfour_mpi/bin/xvprop
 @GETMEM-I,  Allocated    3814 MB of main memory.
   Property integrals will be calculated.
    --------------------------------------------------------------
                                   Property evaluated at 
    Property type                X             Y             Z
    --------------------------------------------------------------
    Dipole moment               ----          ----          ----  
    Quadrupole moment           ----          ----          ----  
    Octopole moment             ----          ----          ----  
    Relativisitic corr.         ----          ----          ----  
    Second moment            0.0000000     0.0000000     0.0000000
    Electron density         0.0000000     0.0000000     1.1963701
    Electron density         0.0000000     0.0000000    -0.7976172
    Field gradient           0.0000000     0.0000000     1.1963701
    Field gradient           0.0000000     0.0000000    -0.7976172
    Potential                0.0000000     0.0000000     1.1963701
    Potential                0.0000000     0.0000000    -0.7976172
    --------------------------------------------------------------
 @CHECKOUT-I, Total execution time (CPU/WALL):        1.35/       1.40 seconds.
--executable xvprop finished with status     0 in        1.43 seconds (walltime).
 --invoking executable--
/nfs/workspaces/public/cfour_mpi/bin/xvscf
  There are  218 functions in the AO basis.

  There are 4 irreducible representations.

       Irrep        # of functions
         1                 86
         2                 52
         3                 52
         4                 28


  Parameters for SCF calculation: 
        SCF reference function:  RHF  
  Maximum number of iterations:  150
     Full symmetry point group: CXv 
     Computational point group: C2v 
        Initial density matrix: MOREAD                 
     SCF convergence tolerance: 10**(-10)
  DIIS convergence acceleration:  ON
          Latest start for DIIS:   8
                     DIIS order:   6

  Memory information:    2523578 words required.
  Fock matrices are constructed from AO integral file.
 @GETMEM-I,  Allocated      19 MB of main memory.
  Initialization and symmetry analysis required      0.002 seconds.

  Adding electric field perturbation to one-electron Hamiltonian.
  Field direction     : Z
  Field strength      : -0.0002000 a.u.

  @INITGES-I, Occupancies from core Hamiltonian:

          Alpha population by irrep:   5    1    1    0
           Beta population by irrep:   5    1    1    0


 total no. of electrons in initial guess :  0.000000000000000E+000
  --------------------------------------------------------------------
  Iteration         Total Energy            Largest Density Difference
  --------------------------------------------------------------------
       0            24.072529495687963              0.0000000000D+00
   current occupation vector 
     5  1  1  0
     5  1  1  0
       1           -91.156413572534646              0.1925344987D+02
   current occupation vector 
     5  1  1  0
     5  1  1  0
       2           -94.516185317719433              0.6352646953D+02
   current occupation vector 
     5  1  1  0
     5  1  1  0
       3          -103.188947428558848              0.6350620965D+02
   current occupation vector 
     5  1  1  0
     5  1  1  0
       4          -100.609894206423562              0.1013966687D+02
   current occupation vector 
     5  1  1  0
     5  1  1  0
       5          -104.584163600077986              0.1015199941D+02
   current occupation vector 
     5  1  1  0
     5  1  1  0
       6          -101.834592150720766              0.5726099827D+01
   current occupation vector 
     5  1  1  0
     5  1  1  0
       7          -103.883372799884768              0.5387082390D+01
   current occupation vector 
     5  1  1  0
     5  1  1  0
       8          -101.188998855851750              0.5388230452D+01
   current occupation vector 
     5  1  1  0
     5  1  1  0
       9          -111.284385974521243              0.3796434931D+01
   current occupation vector 
     5  1  1  0
     5  1  1  0
      10          -112.496774094577873              0.9037996711D+00
   current occupation vector 
     5  1  1  0
     5  1  1  0
      11          -112.779569512108210              0.4344153912D+00
   current occupation vector 
     5  1  1  0
     5  1  1  0
      12          -112.784238036152900              0.6567791227D-01
   current occupation vector 
     5  1  1  0
     5  1  1  0
      13          -112.784416235675351              0.1771539601D-01
   current occupation vector 
     5  1  1  0
     5  1  1  0
      14          -112.784439584045217              0.7985611635D-02
   current occupation vector 
     5  1  1  0
     5  1  1  0
      15          -112.784439861900964              0.8645189194D-03
   current occupation vector 
     5  1  1  0
     5  1  1  0
      16          -112.784439865987920              0.6711810488D-04
   current occupation vector 
     5  1  1  0
     5  1  1  0
      17          -112.784439866096662              0.1937671400D-04
   current occupation vector 
     5  1  1  0
     5  1  1  0
      18          -112.784439866101977              0.1593086886D-05
   current occupation vector 
     5  1  1  0
     5  1  1  0
      19          -112.784439866102460              0.7171482583D-06
   current occupation vector 
     5  1  1  0
     5  1  1  0
      20          -112.784439866100016              0.9005986512D-07
   current occupation vector 
     5  1  1  0
     5  1  1  0
      21          -112.784439866101607              0.3041406149D-07
   current occupation vector 
     5  1  1  0
     5  1  1  0
      22          -112.784439866101721              0.1078509904D-07
   current occupation vector 
     5  1  1  0
     5  1  1  0
      23          -112.784439866101948              0.7561276050D-09
   current occupation vector 
     5  1  1  0
     5  1  1  0
      24          -112.784439866101437              0.1781212955D-09
   current occupation vector 
     5  1  1  0
     5  1  1  0
      25          -112.784439866099362              0.1461200050D-09
   current occupation vector 
     5  1  1  0
     5  1  1  0

  SCF has converged.

 Density matrix saved to file den.dat
 total electron number:   14.0000000000003     
     E(SCF)=      -112.784439866102971              0.6251563156D-10

  Eigenvector printing suppressed.

 @PUTMOS-I, Writing converged MOs to NEWMOS. 
 @PUTMOS-I, Symmetry   1 Full Blocks 21 Partial Blocksize   2
 @PUTMOS-I, Symmetry   2 Full Blocks 13 Partial Blocksize   0
 @PUTMOS-I, Symmetry   3 Full Blocks 13 Partial Blocksize   0
 @PUTMOS-I, Symmetry   4 Full Blocks  7 Partial Blocksize   0
 @PUTFOCK-I, Writing converged Fock matrix to NEWFOCK. 
 @PUTFOCK-I, Symmetry   1 Full Blocks 21 Partial Blocksize   2
 @PUTFOCK-I, Symmetry   2 Full Blocks 13 Partial Blocksize   0
 @PUTFOCK-I, Symmetry   3 Full Blocks 13 Partial Blocksize   0
 @PUTFOCK-I, Symmetry   4 Full Blocks  7 Partial Blocksize   0


 
  ORBITAL EIGENVALUES (ALPHA)  (1H = 27.2113834 eV)

       MO #        E(hartree)               E(eV)           FULLSYM    COMPSYM
       ----   --------------------   --------------------   -------   ---------
    1     1         -20.6612990642        -562.2225303790     SG+        A1 (1)
    2     2         -11.3268458489        -308.2191451072     SG+        A1 (1)
    3     3          -1.5734916522         -42.8168846259     SG+        A1 (1)
    4     4          -0.8111705303         -22.0730723016     SG+        A1 (1)
    5    87          -0.6742738954         -18.3479254842      PI        B1 (2)
    6   139          -0.6742738954         -18.3479254842      PI        B2 (3)
    7     5          -0.5455726254         -14.8457858814     SG+        A1 (1)
  +++++++++++++++++++++++++++++++++++++++++++++++++++++++++++++++++++++++++++++
    8     6           0.0592290565           1.6117045654     SG+        A1 (1)
    9    88           0.0639302873           1.7396315596      PI        B1 (2)
   10   140           0.0639302873           1.7396315596      PI        B2 (3)
   11     7           0.0748582263           2.0369958957     SG+        A1 (1)
   12    89           0.1531145539           4.1664588293      PI        B1 (2)
   13   141           0.1531145539           4.1664588293      PI        B2 (3)
   14     8           0.1565302556           4.2594047981     SG+        A1 (1)
   15    90           0.1753135324           4.7705237459      PI        B1 (2)
   16   142           0.1753135324           4.7705237459      PI        B2 (3)
   17     9           0.2276039461           6.1934182406     SG+        A1 (1)
   18   191           0.2276359991           6.1942904485      DE        A2 (4)
   19    10           0.2276359991           6.1942904485      DE        A1 (1)
   20    11           0.3015897484           8.2066742741     SG+        A1 (1)
   21    91           0.3288734530           8.9491016209      PI        B1 (2)
   22   143           0.3288734530           8.9491016209      PI        B2 (3)
   23    12           0.3939666390          10.7203772597     SG+        A1 (1)
   24   144           0.3981974865          10.8355044738      PI        B2 (3)
   25    92           0.3981974865          10.8355044739      PI        B1 (2)
   26    13           0.5083206208          13.8321073026     SG+        A1 (1)
   27   192           0.5294443284          14.4069126088      DE        A2 (4)
   28    14           0.5294443284          14.4069126088      DE        A1 (1)
   29    93           0.6208998558          16.8955440301      PI        B1 (2)
   30   145           0.6208998558          16.8955440301      PI        B2 (3)
   31    15           0.6589688081          17.9314528858     SG+        A1 (1)
   32   146           0.7496629602          20.3993662302      PH        B2 (3)
   33    94           0.7496629602          20.3993662302      PH        B1 (2)
   34    16           0.7702207432          20.9587719466      DE        A1 (1)
   35   193           0.7702207432          20.9587719466      DE        A2 (4)
   36    17           0.7832533860          21.3134081868     SG+        A1 (1)
   37   147           0.8324896349          22.6531946316      PI        B2 (3)
   38    95           0.8324896349          22.6531946316      PI        B1 (2)
   39    18           0.8751302260          23.8135041038     SG+        A1 (1)
   40   148           0.8759458070          23.8356971930      PI        B2 (3)
   41    96           0.8759458070          23.8356971931      PI        B1 (2)
   42   194           0.8963646177          24.3913212782      DE        A2 (4)
   43    19           0.8963646177          24.3913212782      DE        A1 (1)
   44    20           0.9401371275          25.5824318257     SG+        A1 (1)
   45    97           1.0948899788          29.7934709944      PI        B1 (2)
   46   149           1.0948899788          29.7934709944      PI        B2 (3)
   47    21           1.2613342877          34.3226508980     SG+        A1 (1)
   48   150           1.4528214858          39.5332824610      PH        B2 (3)
   49    98           1.4528214858          39.5332824610      PH        B1 (2)
   50   195           1.5073364788          41.0167108366      DE        A2 (4)
   51    22           1.5073364788          41.0167108366      DE        A1 (1)
   52    23           1.5106917125          41.1080113892     SG+        A1 (1)
   53   151           1.5419264000          41.9579504463      PI        B2 (3)
   54    99           1.5419264001          41.9579504464      PI        B1 (2)
   55    24           1.6610026873          45.1981809515     SG+        A1 (1)
   56    25           1.7545530581          47.7438159586     SG+        A1 (1)
   57   196           1.7753432925          48.3095469978      DE        A2 (4)
   58    26           1.7753432925          48.3095469979      DE        A1 (1)
   59   152           1.8575387839          50.5462000277      PI        B2 (3)
   60   100           1.8575387839          50.5462000278      PI        B1 (2)
   61   153           1.9473311629          52.9895748799      PI        B2 (3)
   62   101           1.9473311629          52.9895748801      PI        B1 (2)
   63    27           2.1100827726          57.4182713310      PI        A1 (1)
   64   197           2.1100827726          57.4182713310      PI        A2 (4)
   65    28           2.1802518740          59.3276696510     SG+        A1 (1)
   66    29           2.2121074756          60.1945046400      DE        A1 (1)
   67   198           2.2121074756          60.1945046400      DE        A2 (4)
   68   102           2.2574461037          61.4282314322      PH        B1 (2)
   69   154           2.2574461037          61.4282314322      PH        B2 (3)
   70    30           2.3244713914          63.2520822343     SG+        A1 (1)
   71   103           2.3389550020          63.6462013146      PI        B1 (2)
   72   155           2.3389550020          63.6462013146      PI        B2 (3)
   73   199           2.3751227095          64.6303746690      DE        A2 (4)
   74    31           2.3751227095          64.6303746690      DE        A1 (1)
   75   156           2.3907441188          65.0554548285      PH        B2 (3)
   76   104           2.3907441188          65.0554548285      PH        B1 (2)
   77    32           2.5145438910          68.4242178938     SG+        A1 (1)
   78   157           2.6080926654          70.9698094601      PI        B2 (3)
   79   105           2.6080926654          70.9698094601      PI        B1 (2)
   80   106           2.9086069055          79.1472176652      PI        B1 (2)
   81   158           2.9086069055          79.1472176652      PI        B2 (3)
   82    33           3.0420303638          82.7778545434     SG+        A1 (1)
   83   200           3.0694265668          83.5233431271      DE        A2 (4)
   84    34           3.0694265668          83.5233431272      DE        A1 (1)
   85    35           3.4408369129          93.6299324548     SG+        A1 (1)
   86    36           3.7397557692         101.7639280586      PI        A1 (1)
   87   201           3.7397557692         101.7639280586      PI        A2 (4)
   88   159           3.7625530308         102.3842730848      PI        B2 (3)
   89   107           3.7625530308         102.3842730850      PI        B1 (2)
   90    37           3.9719110508         108.0811944335     SG+        A1 (1)
   91   160           4.0751991529         110.8918065800      PH        B2 (3)
   92   108           4.0751991529         110.8918065800      PH        B1 (2)
   93   202           4.1761369140         113.6384626990      DE        A2 (4)
   94    38           4.1761369140         113.6384626990      DE        A1 (1)
   95   161           4.2105665271         114.5753401002      PI        B2 (3)
   96   109           4.2105665271         114.5753401002      PI        B1 (2)
   97    39           4.2966273816         116.9171750067     SG+        A1 (1)
   98   110           4.3682320553         118.8656372375      PH        B1 (2)
   99   162           4.3682320553         118.8656372375      PH        B2 (3)
  100    40           4.4141070810         120.1139601507      DE        A1 (1)
  101   203           4.4141070810         120.1139601507      DE        A2 (4)
  102    41           4.6459156964         126.4217932577     SG+        A1 (1)
  103   111           4.7857334491         130.2264277331      PI        B1 (2)
  104   163           4.7857334491         130.2264277331      PI        B2 (3)
  105    42           4.9657501228         135.1249304614     SG+        A1 (1)
  106    43           5.1857762819         141.1121466331      DE        A1 (1)
  107   204           5.1857762819         141.1121466333      DE        A2 (4)
  108   112           5.2333672857         142.4071636841      PI        B1 (2)
  109   164           5.2333672857         142.4071636842      PI        B2 (3)
  110   113           5.8985066548         160.5065260701      PI        B1 (2)
  111   165           5.8985066548         160.5065260705      PI        B2 (3)
  112    44           5.9120761823         160.8757716878      PI        A1 (1)
  113   205           5.9120761823         160.8757716878      PI        A2 (4)
  114    45           6.1020416865         166.0449958545     SG+        A1 (1)
  115   166           6.2133422212         169.0736373756      PH        B2 (3)
  116   114           6.2133422212         169.0736373756      PH        B1 (2)
  117    46           6.2161028035         169.1487566393     SG+        A1 (1)
  118   206           6.3233040984         172.0658521766      DE        A2 (4)
  119    47           6.3233040984         172.0658521766      DE        A1 (1)
  120   167           6.3515843042         172.8353956979      PI        B2 (3)
  121   115           6.3515843042         172.8353956979      PI        B1 (2)
  122   168           6.4614613117         175.8253010769      PH        B2 (3)
  123   116           6.4614613117         175.8253010769      PH        B1 (2)
  124    48           6.6430222234         180.7658246549      DE        A1 (1)
  125   207           6.6430222234         180.7658246550      DE        A2 (4)
  126    49           7.1321068192         194.0744931061     SG+        A1 (1)
  127    50           7.6512534469         208.2011910355      DE        A1 (1)
  128   208           7.6512534470         208.2011910359      DE        A2 (4)
  129   169           7.6806630978         209.0014683194      PI        B2 (3)
  130   117           7.6806630978         209.0014683195      PI        B1 (2)
  131    51           8.0079740603         217.9080524116     SG+        A1 (1)
  132    52           8.5230904507         231.9250820078     SG+        A1 (1)
  133   118           8.7125792984         237.0813356922      PI        B1 (2)
  134   170           8.7125792984         237.0813356923      PI        B2 (3)
  135   119          10.1258413766         275.5381519462      PI        B1 (2)
  136   171          10.1258413766         275.5381519465      PI        B2 (3)
  137    53          10.1896706962         277.2750360330     SG+        A1 (1)
  138   209          10.6005933331         288.4568094555      PI        A2 (4)
  139    54          10.6005933331         288.4568094555      PI        A1 (1)
  140   172          10.9418307089         297.7423505175      PH        B2 (3)
  141   120          10.9418307089         297.7423505175      PH        B1 (2)
  142   210          11.2166702305         305.2211141135      DE        A2 (4)
  143    55          11.2166702305         305.2211141135      DE        A1 (1)
  144    56          11.2542364611         306.2433432169     SG+        A1 (1)
  145   173          11.4074441174         310.4123354925      PI        B2 (3)
  146   121          11.4074441174         310.4123354925      PI        B1 (2)
  147   174          11.8579929802         322.6723933381      PH        B2 (3)
  148   122          11.8579929802         322.6723933381      PH        B1 (2)
  149    57          12.0806315603         328.7306971007     SG+        A1 (1)
  150    58          12.3685096940         336.5642593692      DE        A1 (1)
  151   211          12.3685096940         336.5642593698      DE        A2 (4)
  152   123          12.8244793281         348.9718239025      PI        B1 (2)
  153   175          12.8244793281         348.9718239026      PI        B2 (3)
  154    59          12.9495215139         352.3743947615      DE        A1 (1)
  155   212          12.9495215139         352.3743947615      DE        A2 (4)
  156    60          13.6566541744         371.6164526995     SG+        A1 (1)
  157   176          14.6040470053         397.3963222531      PI        B2 (3)
  158   124          14.6040470053         397.3963222531      PI        B1 (2)
  159    61          15.8244274153         430.6045614832     SG+        A1 (1)
  160    62          18.2417492910         496.3832338440     SG+        A1 (1)
  161   125          19.5458675901         531.8700968796      PI        B1 (2)
  162   177          19.5458675901         531.8700968807      PI        B2 (3)
  163    63          20.9942215285         571.2818111954     SG+        A1 (1)
  164    64          26.6233099763         724.4570951411      DE        A1 (1)
  165   213          26.6233099763         724.4570951413      DE        A2 (4)
  166   178          27.2638934137         741.8882566582      PI        B2 (3)
  167   126          27.2638934137         741.8882566582      PI        B1 (2)
  168    65          28.5483290323         776.8395267270     SG+        A1 (1)
  169   127          33.8463182339         921.0051421410      PI        B1 (2)
  170   179          33.8463182339         921.0051421417      PI        B2 (3)
  171    66          35.3263967719         961.2801267016     SG+        A1 (1)
  172    67          37.2004077085        1012.2745567929     SG+        A1 (1)
  173    68          47.1508443121        1283.0397022096      DE        A1 (1)
  174   214          47.1508443121        1283.0397022096      DE        A2 (4)
  175   180          47.9376281358        1304.4491784887      PI        B2 (3)
  176   128          47.9376281358        1304.4491784887      PI        B1 (2)
  177    69          48.7246079125        1325.8639869223     SG+        A1 (1)
  178    70          64.4326855973        1753.3025112800     SG+        A1 (1)
  179   129          66.9768888466        1822.5338013449      PI        B1 (2)
  180   181          66.9768888467        1822.5338013455      PI        B2 (3)
  181    71          68.0554054375        1851.8817298022     SG+        A1 (1)
  182   182          98.7144738871        2686.1573960707      PH        B2 (3)
  183   130          98.7144738871        2686.1573960707      PH        B1 (2)
  184   215          98.7458305404        2687.0106539853      DE        A2 (4)
  185    72          98.7458305404        2687.0106539853      DE        A1 (1)
  186   183          98.8217210813        2689.0757405912      PI        B2 (3)
  187   131          98.8217210813        2689.0757405913      PI        B1 (2)
  188    73          98.8393150490        2689.5544967914     SG+        A1 (1)
  189   184         103.2890544435        2810.6380614858      PH        B2 (3)
  190   132         103.2890544435        2810.6380614858      PH        B1 (2)
  191   216         103.3496263425        2812.2863066522      DE        A2 (4)
  192    74         103.3496263425        2812.2863066529      DE        A1 (1)
  193   133         103.3859215599        2813.2739497274      PI        B1 (2)
  194   185         103.3859215599        2813.2739497275      PI        B2 (3)
  195    75         103.4680814551        2815.5096341369     SG+        A1 (1)
  196    76         115.2548242132        3136.2432103657      DE        A1 (1)
  197   217         115.2548242132        3136.2432103657      DE        A2 (4)
  198   186         115.5656721256        3144.7018120886      PI        B2 (3)
  199   134         115.5656721256        3144.7018120886      PI        B1 (2)
  200    77         116.1604392469        3160.8862482592     SG+        A1 (1)
  201   135         117.0878201911        3186.1215666890      PI        B1 (2)
  202   187         117.0878201911        3186.1215666893      PI        B2 (3)
  203    78         118.4858675881        3224.1643704213     SG+        A1 (1)
  204    79         123.1292174661        3350.5163442130     SG+        A1 (1)
  205    80         198.6000358108        5404.1817177001      DE        A1 (1)
  206   218         198.6000358108        5404.1817177001      DE        A2 (4)
  207   136         199.0305203242        5415.8957968437      PI        B1 (2)
  208   188         199.0305203242        5415.8957968440      PI        B2 (3)
  209    81         199.4422121553        5427.0985011030     SG+        A1 (1)
  210    82         216.8907687996        5901.8978657273     SG+        A1 (1)
  211   137         225.3783600141        6132.8569644081      PI        B1 (2)
  212   189         225.3783600142        6132.8569644086      PI        B2 (3)
  213    83         226.2516107731        6156.6193256137     SG+        A1 (1)
  214   138         395.5396218150       10763.1802990990      PI        B1 (2)
  215   190         395.5396218150       10763.1802991000      PI        B2 (3)
  216    84         396.6162737222       10792.4774869328     SG+        A1 (1)
  217    85         509.5998328883       13866.9164333007     SG+        A1 (1)
  218    86         895.7315267164       24374.0939969478     SG+        A1 (1)


  VSCF finished.

 @CHECKOUT-I, Total execution time (CPU/WALL):       49.53/      11.83 seconds.
--executable xvscf finished with status     0 in       11.92 seconds (walltime).
 --invoking executable--
/nfs/workspaces/public/cfour_mpi/bin/xvtran
 @GETMEM-I,  Allocated    3814 MB of main memory.
  Full RHF integral transformation
  Transformation of IIII integrals :
  1 pass through the AO integral file was required.
     4632565 AO integrals were read.
     8860269 MO integrals were written to HF2.
  Transformation of IIJJ integrals :
  1 pass through the AO integral file was required.
    10465227 AO integrals were read.
    14677339 MO integrals were written to HF2.
  Transformation of IJIJ integrals :
  1 pass through the AO integral file was required.
    19851637 AO integrals were read.
    27684007 MO integrals were written to HF2.
  Transformation of IJKL integrals :
  1 pass through the AO integral file was required.
    14678484 AO integrals were read.
    18679491 MO integrals were written to HF2.
  Summary of active molecular orbitals: 
------------------------------------------------------------------------
 
  Index      Eigenvalue    Symmetry    Index      Eigenvalue    Symmetry
------------------------------------------------------------------------
     1       -20.6612991        1       110         4.2105665        2
     2       -11.3268458        1       111         4.3682321        2
     3        -1.5734917        1       112         4.7857334        2
     4        -0.8111705        1       113         5.2333673        2
     5        -0.5455726        1       114         5.8985067        2
     6        -0.6742739        2       115         6.2133422        2
     7        -0.6742739        3       116         6.3515843        2
     8         0.0592291        1       117         6.4614613        2
     9         0.0748582        1       118         7.6806631        2
    10         0.1565303        1       119         8.7125793        2
    11         0.2276039        1       120        10.1258414        2
    12         0.2276360        1       121        10.9418307        2
    13         0.3015897        1       122        11.4074441        2
    14         0.3939666        1       123        11.8579930        2
    15         0.5083206        1       124        12.8244793        2
    16         0.5294443        1       125        14.6040470        2
    17         0.6589688        1       126        19.5458676        2
    18         0.7702207        1       127        27.2638934        2
    19         0.7832534        1       128        33.8463182        2
    20         0.8751302        1       129        47.9376281        2
    21         0.8963646        1       130        66.9768888        2
    22         0.9401371        1       131        98.7144739        2
    23         1.2613343        1       132        98.8217211        2
    24         1.5073365        1       133       103.2890544        2
    25         1.5106917        1       134       103.3859216        2
    26         1.6610027        1       135       115.5656721        2
    27         1.7545531        1       136       117.0878202        2
    28         1.7753433        1       137       199.0305203        2
    29         2.1100828        1       138       225.3783600        2
    30         2.1802519        1       139       395.5396218        2
    31         2.2121075        1       140         0.0639303        3
    32         2.3244714        1       141         0.1531146        3
    33         2.3751227        1       142         0.1753135        3
    34         2.5145439        1       143         0.3288735        3
    35         3.0420304        1       144         0.3981975        3
    36         3.0694266        1       145         0.6208999        3
    37         3.4408369        1       146         0.7496630        3
    38         3.7397558        1       147         0.8324896        3
    39         3.9719111        1       148         0.8759458        3
    40         4.1761369        1       149         1.0948900        3
    41         4.2966274        1       150         1.4528215        3
    42         4.4141071        1       151         1.5419264        3
    43         4.6459157        1       152         1.8575388        3
    44         4.9657501        1       153         1.9473312        3
    45         5.1857763        1       154         2.2574461        3
    46         5.9120762        1       155         2.3389550        3
    47         6.1020417        1       156         2.3907441        3
    48         6.2161028        1       157         2.6080927        3
    49         6.3233041        1       158         2.9086069        3
    50         6.6430222        1       159         3.7625530        3
    51         7.1321068        1       160         4.0751992        3
    52         7.6512534        1       161         4.2105665        3
    53         8.0079741        1       162         4.3682321        3
    54         8.5230905        1       163         4.7857334        3
    55        10.1896707        1       164         5.2333673        3
    56        10.6005933        1       165         5.8985067        3
    57        11.2166702        1       166         6.2133422        3
    58        11.2542365        1       167         6.3515843        3
    59        12.0806316        1       168         6.4614613        3
    60        12.3685097        1       169         7.6806631        3
    61        12.9495215        1       170         8.7125793        3
    62        13.6566542        1       171        10.1258414        3
    63        15.8244274        1       172        10.9418307        3
    64        18.2417493        1       173        11.4074441        3
    65        20.9942215        1       174        11.8579930        3
    66        26.6233100        1       175        12.8244793        3
    67        28.5483290        1       176        14.6040470        3
    68        35.3263968        1       177        19.5458676        3
    69        37.2004077        1       178        27.2638934        3
    70        47.1508443        1       179        33.8463182        3
    71        48.7246079        1       180        47.9376281        3
    72        64.4326856        1       181        66.9768888        3
    73        68.0554054        1       182        98.7144739        3
    74        98.7458305        1       183        98.8217211        3
    75        98.8393150        1       184       103.2890544        3
    76       103.3496263        1       185       103.3859216        3
    77       103.4680815        1       186       115.5656721        3
    78       115.2548242        1       187       117.0878202        3
    79       116.1604392        1       188       199.0305203        3
    80       118.4858676        1       189       225.3783600        3
    81       123.1292175        1       190       395.5396218        3
    82       198.6000358        1       191         0.2276360        4
    83       199.4422122        1       192         0.5294443        4
    84       216.8907688        1       193         0.7702207        4
    85       226.2516108        1       194         0.8963646        4
    86       396.6162737        1       195         1.5073365        4
    87       509.5998329        1       196         1.7753433        4
    88       895.7315267        1       197         2.1100828        4
    89         0.0639303        2       198         2.2121075        4
    90         0.1531146        2       199         2.3751227        4
    91         0.1753135        2       200         3.0694266        4
    92         0.3288735        2       201         3.7397558        4
    93         0.3981975        2       202         4.1761369        4
    94         0.6208999        2       203         4.4141071        4
    95         0.7496630        2       204         5.1857763        4
    96         0.8324896        2       205         5.9120762        4
    97         0.8759458        2       206         6.3233041        4
    98         1.0948900        2       207         6.6430222        4
    99         1.4528215        2       208         7.6512534        4
   100         1.5419264        2       209        10.6005933        4
   101         1.8575388        2       210        11.2166702        4
   102         1.9473312        2       211        12.3685097        4
   103         2.2574461        2       212        12.9495215        4
   104         2.3389550        2       213        26.6233100        4
   105         2.3907441        2       214        47.1508443        4
   106         2.6080927        2       215        98.7458305        4
   107         2.9086069        2       216       103.3496263        4
   108         3.7625530        2       217       115.2548242        4
   109         4.0751992        2       218       198.6000358        4
------------------------------------------------------------------------
  -20.6612990642359       -11.3268458489017       -1.57349165224330     
 -0.811170530256158      -0.545572625366132      -0.674273895394299     
 -0.674273895394226       5.922905652144289E-002  7.485822626973301E-002
  0.156530255572504       0.227603946095668       0.227635999148249     
  0.301589748433277       0.393966638963777       0.508320620796354     
  0.529444328389724       0.658968808099265       0.770220743227910     
  0.783253386037713       0.875130225970507       0.896364617691353     
  0.940137127526603        1.26133428769557        1.50733647877027     
   1.51069171254333        1.66100268726142        1.75455305806368     
   1.77534329246646        2.11008277260055        2.18025187396484     
   2.21210747558071        2.32447139142277        2.37512270945305     
   2.51454389098653        3.04203036378415        3.06942656679538     
   3.44083691293514        3.73975576921910        3.97191105078228     
   4.17613691404689        4.29662738156590        4.41410708103375     
   4.64591569636061        4.96575012284912        5.18577628188880     
   5.91207618234440        6.10204168651193        6.21610280348035     
   6.32330409841048        6.64302222337142        7.13210681916801     
   7.65125344694807        8.00797406028191        8.52309045073555     
   10.1896706961616        10.6005933331389        11.2166702305005     
   11.2542364610887        12.0806315602714        12.3685096939704     
   12.9495215139067        13.6566541743527        15.8244274152986     
   18.2417492909984        20.9942215284590        26.6233099762608     
   28.5483290322889        35.3263967719320        37.2004077085222     
   47.1508443120766        48.7246079125209        64.4326855973060     
   68.0554054374984        98.7458305403651        98.8393150489884     
[...]
 Convergence information after     8 iterations: 
 Largest element of residual vector : -0.19656145E-04.
 Largest element of DIIS residual   :  0.15643388E-04.
 Convergence information after     9 iterations: 
 Largest element of residual vector :  0.68895392E-05.
 Largest element of DIIS residual   :  0.39697791E-05.
 Convergence information after    10 iterations: 
 Largest element of residual vector :  0.31306183E-05.
 Largest element of DIIS residual   :  0.20592394E-05.
 Convergence information after    11 iterations: 
 Largest element of residual vector :  0.10365999E-05.
 Largest element of DIIS residual   :  0.48586936E-06.
 Convergence information after    12 iterations: 
 Largest element of residual vector :  0.44356752E-06.
 Largest element of DIIS residual   :  0.26097902E-06.
 Convergence information after    13 iterations: 
 Largest element of residual vector :  0.17269793E-06.
 Largest element of DIIS residual   :  0.16128423E-06.
 Convergence information after    14 iterations: 
 Largest element of residual vector :  0.11704435E-06.
 Largest element of DIIS residual   :  0.78969540E-07.
 Perturbed amplitude equations converged in    14 iterations.
  Dominant contributions to perturbed wavefunction:
    7    7  142   37   0.2436636774 ABAB
    7    7   37  142   0.2436636774 ABAB
    7    7  142   27   0.2232759043 ABAB
    7    7   27  142   0.2232759043 ABAB
    7    7  142   55   0.1865221949 ABAB
    7    7   55  142   0.1865221949 ABAB
    7    7  142   63   0.1824558475 ABAB
    7    7   63  142   0.1824558475 ABAB
    7    7  142   47   0.1683583530 ABAB
    7    7   47  142   0.1683583530 ABAB
    7    6   37   91   0.1650263486 ABAB
    6    7   91   37   0.1650263486 ABAB
    7    6   27   91   0.1506562354 ABAB
    6    7   91   27   0.1506562354 ABAB
    7    7  142   51  -0.1454960476 ABAB
    7    7   51  142  -0.1454960476 ABAB
    7    7  142   19   0.1401282079 ABAB
    7    7   19  142   0.1401282079 ABAB
    7    7  143   37   0.1372161589 ABAB
    7    7   37  143   0.1372161589 ABAB
  norm of converged amps    2.65515568482910     
 Starting iterative solution of the perturbed Lambda equations.
 The DIIS procedure is used to accelerate convergence.
 Convergence criterion is 10**(-7).
 Maximum number of iterations is 100.
 Convergence information after     1 iterations: 
 Largest element of residual vector : -0.65602845E-01.
 Largest element of DIIS residual   : -0.65602845E-01.
 Convergence information after     2 iterations: 
 Largest element of residual vector :  0.65554825E-02.
 Largest element of DIIS residual   :  0.55532378E-02.
 Convergence information after     3 iterations: 
 Largest element of residual vector : -0.36571005E-02.
 Largest element of DIIS residual   : -0.32861968E-02.
 Convergence information after     4 iterations: 
 Largest element of residual vector : -0.23085775E-02.
 Largest element of DIIS residual   : -0.17738107E-02.
 Convergence information after     5 iterations: 
 Largest element of residual vector : -0.12863683E-02.
 Largest element of DIIS residual   : -0.59002663E-03.
 Convergence information after     6 iterations: 
 Largest element of residual vector : -0.40840688E-03.
 Largest element of DIIS residual   : -0.96659987E-04.
 Convergence information after     7 iterations: 
 Largest element of residual vector : -0.69791570E-04.
 Largest element of DIIS residual   : -0.35236670E-04.
 Convergence information after     8 iterations: 
 Largest element of residual vector : -0.15354908E-04.
 Largest element of DIIS residual   :  0.13064934E-04.
 Convergence information after     9 iterations: 
 Largest element of residual vector :  0.58618575E-05.
 Largest element of DIIS residual   :  0.34088836E-05.
 Convergence information after    10 iterations: 
 Largest element of residual vector :  0.26210716E-05.
 Largest element of DIIS residual   :  0.17585571E-05.
 Convergence information after    11 iterations: 
 Largest element of residual vector :  0.87964245E-06.
 Largest element of DIIS residual   :  0.46758806E-06.
 Convergence information after    12 iterations: 
 Largest element of residual vector :  0.39903166E-06.
 Largest element of DIIS residual   :  0.25316508E-06.
 Convergence information after    13 iterations: 
 Largest element of residual vector :  0.16591664E-06.
 Largest element of DIIS residual   :  0.15637853E-06.
 Convergence information after    14 iterations: 
 Largest element of residual vector :  0.11337138E-06.
 Largest element of DIIS residual   :  0.75220427E-07.
 Perturbed Lambda equations converged in    14 iterations.
  Dominant contributions to perturbed wavefunction:
    7    7  142   37   0.2334378131 ABAB
    7    7   37  142   0.2334378131 ABAB
    7    7  142   27   0.2131067554 ABAB
    7    7   27  142   0.2131067554 ABAB
    7    7  142   55   0.1768602116 ABAB
    7    7   55  142   0.1768602116 ABAB
    7    7  142   63   0.1744419651 ABAB
    7    7   63  142   0.1744419651 ABAB
    7    7  142   47   0.1609121703 ABAB
    7    7   47  142   0.1609121703 ABAB
    7    6   37   91   0.1563700748 ABAB
    6    7   91   37   0.1563700748 ABAB
    7    6   27   91   0.1420249940 ABAB
    6    7   91   27   0.1420249940 ABAB
    7    7  142   51  -0.1394351341 ABAB
    7    7   51  142  -0.1394351341 ABAB
    7    7  142   19   0.1338152913 ABAB
    7    7   19  142   0.1338152913 ABAB
    7    7  143   37   0.1321322466 ABAB
    7    7   37  143   0.1321322466 ABAB
        The DBOC first-order density matrix is being calculated 
             (Symmetry block 3, perturbation   2)
 term   8.34652758344780     
 final tnorm  0.896225396172454     
  norm contr. I: |<0|L dT/dx|0>|^2   0.000000000000000E+000
  norm contr. II: <0|[nabla(1+L)e-T][nabla e^T]|0>   8.34652758344780     
  total norm contribution   8.34652758344780     
 oo  1.166432803292728E-002
 vv  -55.7080170558143     
 vo  2.559409616843278E-002
  Correlated perturbed 1-el contribution to DBOC  -55.6707586316129       cm**-1
  SUM_I |dc_I/dx|^2 contribution to DBOC   27.9224630393864       cm**-1
 
 
  The total diagonal Born-Oppenheimer correction (DBOC) is:      0.0038765401 a.u.
  The total diagonal Born-Oppenheimer correction (DBOC) is:        850.802218 cm-1
 
 Total CC energy including DBOC  -113.269811858918     
 First-order density matrix is being calculated  (Symmetry block 3, perturbation   2)
 Calculation of the contributions of <pq||rs> to dI(i,j)/dx required   3.1 seconds.
 Calculation of the contributions of <pq||rs> to dI(a,b)/dx required  16.3 seconds.
 Calculation of the contributions of <pq||rs> to dI(i,a)/dx required   9.2 seconds.
 First-order Z-vector equations are solved for 1 perturbation.
 Convergence reached after  17 iterations.
        U*G(pq,rs) contribution is being calculated
             (Symmetry block 3, perturbation   2)

 CCSD contribution to force constants 

        0.0000000000        0.0000000000        0.0000000000
        0.0000000000        0.0000000000        0.0000000000
        0.0000000000        0.0000000000        0.0000000000
        0.0000000000        0.0000000000        0.0000000000
        0.0000000000        0.0000000000        0.0000000000
        0.0000000000        0.0000000000        0.0000000000
        0.0000000000        0.0000000000        0.0000000000
        0.0000000000        0.0000000000        0.0000000000
        0.0000000000        0.0000000000        0.0000000000
        0.0000000000        0.0000000000        0.0000000000
        0.0000000000        0.0000000000        0.0000000000
        0.0000000000       -6.4067504729        6.4067504729

 CCSD contribution to dipole derivatives 

        0.0000000000        0.0000000000        0.0000000000
        0.0000000000        0.0000000000        0.0000000000
        0.0000000000        0.0000000000        0.0000000000
        0.0000000000        0.0000000000       -0.0412183953
        0.0000000000        0.0000000000        0.0000000000
        0.0000000000        0.0000000000        0.0000000000
 @CHECKOUT-I, Total execution time (CPU/WALL):     1167.16/     489.41 seconds.
--executable xsdcc finished with status     0 in      489.64 seconds (walltime).
 --invoking executable--
/nfs/workspaces/public/cfour_mpi/bin/xanti
 @GETMEM-I,  Allocated    3814 MB of main memory.
 CCSD MO derivative gammas will be sorted to Mulliken order.
 @CHECKOUT-I, Total execution time (CPU/WALL):       12.52/      21.62 seconds.
--executable xanti finished with status     0 in       21.76 seconds (walltime).
 --invoking executable--
/nfs/workspaces/public/cfour_mpi/bin/xbcktrn
 @GETMEM-I,  Allocated    3814 MB of main memory.
 CCSD MO derivative gammas will be transformed to the AO basis.
 @CHECKOUT-I, Total execution time (CPU/WALL):       24.81/       5.99 seconds.
--executable xbcktrn finished with status     0 in        6.05 seconds (walltime).
 --invoking executable--
/nfs/workspaces/public/cfour_mpi/bin/xvdint
 @GETMEM-I,  Allocated    3814 MB of main memory.
 One- and two-electron integral derivatives are calculated
 for RHF-CC/MBPT hessians and dipole derivatives.
 Spherical gaussians are used.
  magnet F F
                    8722  records have been written to the Sort file.
  Total length of Sort file :             178609116  words.
 Evaluation of 2el integral derivatives

                      Two-electron integral gradient
                      ------------------------------

                         C #1 z     0.0000000000
                         O #2 z     0.0000000000


 C #1       0.0000000000           -1.0088699364            0.0000000000
 O #2       0.0000000000            1.0088699364            0.0000000000


 Evaluation of 2e integral derivatives required  353.62 seconds.
  contribution to Hessian
        0.0000000000        0.0000000000        0.0000000000
        0.0000000000       -1.0088699364        1.0088699364
 @CHECKOUT-I, Total execution time (CPU/WALL):      353.61/      71.08 seconds.
--executable xvdint finished with status     0 in       71.25 seconds (walltime).
 --invoking executable--
/nfs/workspaces/public/cfour_mpi/bin/xanti
 @GETMEM-I,  Allocated    3814 MB of main memory.
 CCSD MO gammas will be sorted to Mulliken order.
 @CHECKOUT-I, Total execution time (CPU/WALL):       18.09/      58.60 seconds.
--executable xanti finished with status     0 in       60.80 seconds (walltime).
 --invoking executable--
/nfs/workspaces/public/cfour_mpi/bin/xbcktrn
 @GETMEM-I,  Allocated    3814 MB of main memory.
 CCSD MO gammas will be transformed to the AO basis.
 @CHECKOUT-I, Total execution time (CPU/WALL):       51.42/      10.46 seconds.
--executable xbcktrn finished with status     0 in       10.53 seconds (walltime).
 --invoking executable--
/nfs/workspaces/public/cfour_mpi/bin/xvdint
 @GETMEM-I,  Allocated    3814 MB of main memory.
 One- and two-electron integral derivatives are calculated
 for RHF-CC/MBPT hessians and dipole derivatives.
 Spherical gaussians are used.
  magnet F F

                     Kinetic energy integral gradient
                     --------------------------------

                         C #1 z    -1.7305353212
                         O #2 z     1.7305353212


 C #1       0.0000000000            0.0000000000           -1.7305353212
 O #2       0.0000000000            0.0000000000            1.7305353212



                   Nuclear attraction integral gradient
                   ------------------------------------

                         C #1 z    25.6401140442
                         O #2 z   -25.6401140442


 C #1       0.0000000000            0.0000000000           25.6401140442
 O #2       0.0000000000            0.0000000000          -25.6401140442



                      Reorthonormalization gradient
                      -----------------------------

                         C #1 z     0.0000000000
                         O #2 z     0.0000000000


 C #1       0.0000000000            0.0000000000            0.0000000000
 O #2       0.0000000000            0.0000000000            0.0000000000



                     Kinetic energy integral Hessian
                     -------------------------------


           Symmetry 1

           C #1 z      O #2 z

 C #1 z    0.987326
 O #2 z   -0.987326    0.987326


           Symmetry 2

           C #1 x      O #2 x

 C #1 x   -2.609364
 O #2 x    2.609364   -2.609364


           Symmetry 3

           C #1 y      O #2 y

 C #1 y   -2.609364
 O #2 y    2.609364   -2.609364




           C #1 x      C #1 y      C #1 z      O #2 x      O #2 y      O #2 z

 C #1 x   -2.609364
 C #1 y    0.000000   -2.609364
 C #1 z    0.000000    0.000000    0.987326

 O #2 x    2.609364    0.000000    0.000000   -2.609364
 O #2 y    0.000000    2.609364    0.000000    0.000000   -2.609364
 O #2 z    0.000000    0.000000   -0.987326    0.000000    0.000000    0.987326




                   Nuclear attraction integral Hessian
                   -----------------------------------


           Symmetry 1

           C #1 z      O #2 z

 C #1 z  -13.360717
 O #2 z   13.360717  -13.360717


           Symmetry 2

           C #1 x      O #2 x

 C #1 x   25.527889
 O #2 x  -25.527889   25.527889


           Symmetry 3

           C #1 y      O #2 y

 C #1 y   25.527889
 O #2 y  -25.527889   25.527889




           C #1 x      C #1 y      C #1 z      O #2 x      O #2 y      O #2 z

 C #1 x   25.527889
 C #1 y    0.000000   25.527889
 C #1 z    0.000000    0.000000  -13.360717

 O #2 x  -25.527889    0.000000    0.000000   25.527889
 O #2 y    0.000000  -25.527889    0.000000    0.000000   25.527889
 O #2 z    0.000000    0.000000   13.360717    0.000000    0.000000  -13.360717




                Highest order reorthonormalization Hessian
                ------------------------------------------


           Symmetry 1

           C #1 z      O #2 z

 C #1 z    0.000000
 O #2 z    0.000000    0.000000


           Symmetry 2

           C #1 x      O #2 x

 C #1 x    0.000000
 O #2 x    0.000000    0.000000


           Symmetry 3

           C #1 y      O #2 y

 C #1 y    0.000000
 O #2 y    0.000000    0.000000




           C #1 x      C #1 y      C #1 z      O #2 x      O #2 y      O #2 z




                Electronic contributions to dipole moment
                -----------------------------------------

                               au             Debye

                    z     -0.94343223     -2.39796595

  Conversion factor used: 1 a.u. =   2.54174691 Debye 



   Electronic contributions to static part of dipole moment derivatives
   --------------------------------------------------------------------


                     Total dipole moment derivatives
                     -------------------------------


           Symmetry 1
                              Ez

               C #1 z    -5.75693871
               O #2 z    -8.24306129

           Symmetry 2
                              Ex

               C #1 x    -5.84507976
               O #2 x    -8.15492024

           Symmetry 3
                              Ey

               C #1 y    -5.84507976
               O #2 y    -8.15492024



                       Ex          Ey          Ez

      C #1    x   -5.845080    0.000000    0.000000
      C #1    y    0.000000   -5.845080    0.000000
      C #1    z    0.000000    0.000000   -5.756939

      O #2    x   -8.154920    0.000000    0.000000
      O #2    y    0.000000   -8.154920    0.000000
      O #2    z    0.000000    0.000000   -8.243061

 Evaluation of 1e integral derivatives required    1.67 seconds.
                    8815  records have been written to the Sort file.
  Total length of Sort file :             180513570  words.
 Evaluation of 2el integral derivatives

                      Two-electron integral gradient
                      ------------------------------

                         C #1 z   -11.6610504944
                         O #2 z    11.6610504944


 C #1       0.0000000000            0.0000000000          -11.6610504944
 O #2       0.0000000000            0.0000000000           11.6610504944


 Evaluation of 2e integral derivatives required  716.00 seconds.

                            Molecular gradient
                            ------------------

                         C #1 z     0.1760490764
                         O #2 z    -0.1760490764


 C #1       0.0000000000            0.0000000000            0.1760490764
 O #2       0.0000000000            0.0000000000           -0.1760490764


  Molecular gradient norm 0.249E+00

                            Molecular hessian
                            -----------------


           Symmetry 1

           C #1 z      O #2 z

 C #1 z   80.150429
 O #2 z  -80.150429   80.150429


           Symmetry 2

           C #1 x      O #2 x

 C #1 x    7.224658
 O #2 x   -7.224658    7.224658


           Symmetry 3

           C #1 y      O #2 y

 C #1 y    7.224658
 O #2 y   -7.224658    7.224658




           C #1 x      C #1 y      C #1 z      O #2 x      O #2 y      O #2 z

 C #1 x    7.224658
 C #1 y    0.000000    7.224658
 C #1 z    0.000000    0.000000   80.150429

 O #2 x   -7.224658    0.000000    0.000000    7.224658
 O #2 y    0.000000   -7.224658    0.000000    0.000000    7.224658
 O #2 z    0.000000    0.000000  -80.150429    0.000000    0.000000   80.150429




                           Total dipole moment
                           -------------------

                               au             Debye

                    z     -0.14614987     -0.37147597

  Conversion factor used: 1 a.u. =   2.54174691 Debye 



                     Total dipole moment derivatives
                     -------------------------------


           Symmetry 1
                              Ez

               C #1 z     0.69561528
               O #2 z    -0.69561528

           Symmetry 2
                              Ex

               C #1 x    -0.07432010
               O #2 x     0.07432010

           Symmetry 3
                              Ey

               C #1 y    -0.07432010
               O #2 y     0.07432010



                       Ex          Ey          Ez

      C #1    x   -0.074320    0.000000    0.000000
      C #1    y    0.000000   -0.074320    0.000000
      C #1    z    0.000000    0.000000    0.695615

      O #2    x    0.074320    0.000000    0.000000
      O #2    y    0.000000    0.074320    0.000000
      O #2    z    0.000000    0.000000   -0.695615

 @CHECKOUT-I, Total execution time (CPU/WALL):      717.66/     125.47 seconds.
--executable xvdint finished with status     0 in      125.63 seconds (walltime).
 --invoking executable--
/nfs/workspaces/public/cfour_mpi/bin/xjoda
  @GTFLGS-I, Hessian will be transformed to curvilinear coordinates.
  @GTFLGS-I, Hessian will be transformed to curvilinear coordinates.
  igrd and ihes are                      0                     1
  gradient from JOBARC 
   0.000000000000000   0.000000000000000   0.176049076435280
   0.000000000000000   0.000000000000000  -0.176049076435280
 
  @PROJFCM-I, Projecting force constant matrix onto totally symmetric subspace.
  Largest difference between matrix elements of symmetrized
  and unsymmetrized FCM :     0.6084466264E-10.
  read isotopes from ZMAT file 
 
  Summary of diagonal Born-Oppenheimer correction at the correlated level
  The total diagonal Born-Oppenheimer correction (DBOC) is:      0.0038765401 a.u.
  The total diagonal Born-Oppenheimer correction (DBOC) is:        850.802218 cm-1
  The total diagonal Born-Oppenheimer correction (DBOC) is:            10.178 kJ/mole
  hellooooooo 
  readis is  F
 
 @CHECKOUT-I, Total execution time (CPU/WALL):        0.01/       0.05 seconds.
--executable xjoda finished with status     0 in        0.10 seconds (walltime).
  The final electronic energy is      -113.269811858918487 a.u. 
  This computation required                         4443.48 seconds (walltime).
