 --invoking executable--
/nfs/workspaces/public/cfour_mpi/bin/xjoda


   *************************************************************************
         <<<     CCCCCC     CCCCCC   |||     CCCCCC     CCCCCC   >>>
       <<<      CCC        CCC       |||    CCC        CCC         >>>
      <<<      CCC        CCC        |||   CCC        CCC            >>>
    <<<        CCC        CCC        |||   CCC        CCC              >>>
      <<<      CCC        CCC        |||   CCC        CCC            >>>
       <<<      CCC        CCC       |||    CCC        CCC         >>>
         <<<     CCCCCC     CCCCCC   |||     CCCCCC     CCCCCC   >>>
   *************************************************************************

     ****************************************************************
     * CFOUR Coupled-Cluster techniques for Computational Chemistry *
     ****************************************************************
 

   Department of Chemistry                Institut fuer Physikalische Chemie
   University of Florida                  Universitaet Mainz
   Gainesville, FL 32611, USA             D-55099 Mainz, Germany

   Department of Chemistry                Fakultaet fuer Chemie und Biowiss.
   Johns Hopkins University               Karlsruher Institut fuer Technologie
   Baltimore, MD 21218, USA               D-76131 Karlsruhe, Germany

   Department of Chemistry                Department of Physical Chemistry
   Southern Methodist University          Eotvos Lorand University
   Dallas, TX 75275, USA                  H-1053 Budapest, Hungary

 
                       Version 2.1
 
                     vincent.theory.phys.ucl.ac.uk                     
                     Sat  1 Mar 09:49:44 GMT 2025                      
                     integer*8 version is running
 
********************************************************************************
*                          Input from ZMAT file                                *
********************************************************************************
Carbon Monoxide DBOC calculation                                                
C                                                                               
O 1 r                                                                           
                                                                                
r=0.993103448275862                                                             
                                                                                
                                                                                
*CFOUR(CALC=CCSD,BASIS=AUG-PCVQZ,SCF_CONV=10                                    
CC_CONV=14,DBOC=ON,MEMORY=500000000                                             
ZFIELD=-200)                                                                    
                                                                                
%isotopes                                                                       
12                                                                              
18                                                                              
********************************************************************************
  @GTFLGS-I, Hessian will be transformed to curvilinear coordinates.
    -------------------------------------------------------------------
                    CFOUR Control Parameters 
    -------------------------------------------------------------------
        External           Internal           Value            Units
          Name               Name
    -------------------------------------------------------------------
       ABCDTYPE             IABCDT         STANDARD    [  0]    ***   
       ANHARMONIC           IANHAR         OFF         [  0]    ***   
       ANH_ALGORIT          IANALG         STANDARD    [  0]    ***   
       ANH_DERIVAT          IANDER         SECOND      [  1]    ***   
       ANH_MODE             ANHMOD         VIBRATION   [  0]    ***   
       ANH_STEPSIZ          ICUBST             50000          x 10-6  
       ANH_SYMMETR          IANHSM         ABELIAN     [  0]    ***   
       AO_LADDERS           IAOLAD         SINGLEPASS  [  1]    ***   
       AV_SCF               IAVSCF         OFF         [  0]    ***   
       BASIS                IBASIS         AUG-PCVQZ   [ 52]    ***   
       BOTHVECTORS          BOTHVC         OFF         [  0]    ***   
       BOX_POTENT           IPIAB          OFF         [  0]    ***   
       BREIT                IBREIT         OFF         [  0]    ***   
       BRUCK_CONV           IBRTOL          10D-  4             ***   
       BRUECKNER            IBRKNR         OFF         [  0]    ***   
       BUFFERSIZE           IBUFFS              4096            ***   
       CACHE_RECS           ICHREC             10               ***   
       CALCLEVEL            ICLLVL         CCSD        [ 10]    ***   
       CCORBOPT             ICCORB         OFF         [  0]  x 0.01  
       CC_CONV              ICCCNV          10D- 14             ***   
       CC_EXPORDER          ICCEOR              5               ***   
       CC_EXTRAPOL          ICCEXT         DIIS        [  1]    ***   
       CC_GUESS             ICCGES         MP2         [  0]    ***   
       CC_MAXCYC            ICCCYC            100              cycles 
       CC_PROGRAM           ICCPRO         VCC         [  0]    ***   
       CHARGE               ICHRGE              0               ***   
       CHOLESKY             ICHOLE         OFF         [  0]    ***   
       CIS_CONV             ICISTL              5               ***   
       COMM_SIZE            IPSIZE            ***               ***   
       CONSTANT             ICONST         OLD         [  1]    ***   
       CONTINUUM            ICONTU         NONE        [  0]    ***   
       CONTRACTION          ICNTYP         GENERAL     [  1]    ***   
       COORDINATES          ICOORD         INTERNAL    [  0]    ***   
       CPHF_CONVER          ICPHFT          10D- 16             ***   
       CPHF_MAXCYC          ICPHFC             64              cycles 
       CUBIC                ICUBIC         OFF         [  0]    ***   
       CURVILINEAR          ICURVY         ON          [  1]    ***   
       DBOC                 IDBOC          ON          [  1]    ***   
       DCT                  IDCT           OFF         [  0]    ***   
       DERIV_LEV            IDRLVL         SECOND      [  2]    ***   
       DEVMEM_SIZE          IDVMEM          50000000           MByte  
       DIAG_MRCC            IEOMST          10D-  0             ***   
       DIFF_TYPE            IDIFTY         RELAXED     [  0]    ***   
       DIRECT               IDIRCT         OFF         [  0]    ***   
       DROPMO               IDRPMO      NONE         
       ECP                  IECP           OFF         [  0]    ***   
       EIGENVECTOR          IVEC                1               ***   
       EL_ANHARM            IELANH         OFF         [  0]    ***   
       EOMFOLLOW            IEOMSR         ENERGY      [  0]    ***   
       EOMIP                IEOMIP         OFF         [  0]    ***   
       EOMLEVEL             HBARFM         SAME        [  0]    ***   
       EOM_MRCC             IMRCCE         NEW         [  1]    ***   
       EOM_NONIT            EOMNON         OFF         [  0]    ***   
       EOM_NSING            IEOMSI          10D-  0             ***   
       EOM_NSTATES          IMRCCD         DAVIDSON    [  0]    ***   
       EOM_NTRIP            IEOMTR          10D-  0             ***   
       EOM_ORDER            IEXORD         ENERGY      [  0]    ***   
       EOM_PROPSTA          IEOMST              0               ***   
       ESTATE_CONV          IEXTOL          10D-  5             ***   
       ESTATE_DIAG          IEXDIG         ITERATIVE   [  0]    ***   
       ESTATE_LOCK          IESLOC         ON          [  1]    ***   
       ESTATE_MAXC          IEXMXC             40               ***   
       ESTATE_PROP          IEXPRP         OFF         [  0]    ***   
       EVAL_HESS            IRECAL              0            # of cyc.
       EXCITATION           IEXCIT              0               ***   
       EXCITE               IEXCIT         NONE        [  0]    ***   
       EXTERN_POT           IEXPOT         OFF         [  0]    ***   
       FCGRADNEW            IFCGNW         OFF         [  0]    ***   
       FC_FIELD             IFINFC              0             x 10-6  
       FD_CALTYPE           IFDCAL         GRADONLY    [  0]    ***   
       FD_PROJECT           IFDPRJ         OFF         [  1]    ***   
       FD_STEPSIZE          IDISFD              0            10-4 bohr
       FD_USEGROUP          IFDGRP         FULL        [  0]    ***   
       FILE_RECSIZ          IFLREC              4096           words  
       FINITE_PERT          IFIPER              0             x 10-6  
       FIXGEOM              IFIXGM         OFF         [  0]    ***   
       FOCK                 IFOCK          AO          [  1]    ***   
       FREQ_ALGORI          IVIALG         STANDARD    [  0]    ***   
       FROZEN_CORE          IFROCO         OFF         [  0]    ***   
       GAMMA_ABCD           IGABCD         STORE       [  0]    ***   
       GAMMA_ABCI           IGABCI         STORE       [  0]    ***   
       GENBAS_1             IGNBS1              0               ***   
       GENBAS_2             IGNBS2              0               ***   
       GENBAS_3             IGNBS3              0               ***   
       GENBAS_4             IGNBS4              0               ***   
       GEO_CONV             ICONTL              5              H/bohr 
       GEO_MAXCYC           IOPTCY             50               ***   
       GEO_MAXSTEP          IMXSTP            300            millibohr
       GEO_METHOD           INR            SINGLE_POINT[  5]    ***   
       GIAO                 IGIAO          OFF         [  1]    ***   
       GIMIC                IGIMIC         OFF         [  0]    ***   
       GRID                 IGRID          OFF         [  0]    ***   
       GRID_ALGO            IGALGO         SERIAL      [  0]    ***   
       GUESS                IGUESS         MOREAD      [  0]    ***   
       HBAR                 IHBAR          OFF         [  0]    ***   
       HESS_TYPE            IHESTP         SCF         [  0]    ***   
       HF2_FILE             IHF2Fl         USE         [  1]    ***   
       HFSTABILITY          ISTABL         OFF         [  0]    ***   
       INCORE               INCORE         OFF         [  0]    ***   
       INPUT_MRCC           IMRCC          ON          [  1]    ***   
       INTEGRALS            INTTYP         VMOL        [  1]    ***   
       JODA_PRINT           IJPRNT              0               ***   
       KEYWORD_OUT          IDMPKW         NO          [  0]    ***   
       LINDEP_TOL           ILINDP              8               ***   
       LINEQ_CONV           IZTACN          10D-  7           cycles  
       LINEQ_EXPOR          ILMAXD              5               ***   
       LINEQ_MAXCY          ILMAXC            100               ***   
       LINEQ_TYPE           ILTYPE         DIIS        [  1]    ***   
       LOCK_ORBOCC          ILOCOC         OFF         [  0]    ***   
       MEMORY_SIZE          IMEMSZ         500000000           words  
       MEM_UNIT             IMEMU          INTEGERWORDS[  0]    ***   
       MRCC                 IMRCCC         OFF         [  0]    ***   
       MULTIPLICTY          IMULTP              1               ***   
       NACOUPLING           IVCOUP         OFF         [  0]    ***   
       NEGEVAL              IDIE           ABORT       [  0]    ***   
       NEWNORM              INEWNO         OFF         [  0]    ***   
       NON-HF               INONHF         OFF         [  0]    ***   
       NTOP_TAMP            ITOPT2             15               ***   
       NUC_MODEL            INUCMO         POINT       [  0]    ***   
       OCCUPATION           IOCCU   ESTIMATED BY SCF 
       OPEN-SHELL           IOPEN          SPIN-ORBITAL[  0]    ***   
       OPTVIB               IOPTVB         OFF         [  0]    ***   
       ORBITALS             IORBTP         STANDARD    [  0]    ***   
       PARALLEL             IPARAL         ON          [  1]    ***   
       PARA_INT             IPINTS         ON          [  1]    ***   
       PARA_PRINT           IPPRIN              0               ***   
       PERT_ORB             IPTORB         STANDARD    [  0]    ***   
       POINTS               IGRDFD              0               ***   
       PRINT                IPRNT               0               ***   
       PROPS                IPROPS         OFF         [  0]    ***   
       PROP_INTEGR          IINTYP         INTERNAL    [  0]    ***   
       PSI                  IPSI           OFF         [  0]    ***   
       QC_ALG               IQCALG         FLM         [  0]    ***   
       QC_LINALG            IQCLIN         TRIDIAG     [  2]    ***   
       QC_MAXCYC            IQCMAX          10D-100           cycles  
       QC_MAXSCFCY          IQCMSC          10D- 15           cycles  
       QC_RTRUST            IQCRTR          10D-  0           x 10-3  
       QC_SKIPSCF           IQCSKI         OFF         [  0]    ***   
       QC_START             IQCSTA          10D-  1             ***   
       QRHFGUESS            IQGUES         OFF         [  0]    ***   
       QUARTIC              IQUART         OFF         [  0]    ***   
       RAMAN_INT            IRAMIN         OFF         [  0]    ***   
       RAMAN_ORB            IRAMRE         UNRELAXED   [  0]    ***   
       RDO                  IRDOFM         ON          [  1]    ***   
       REDUCE_REPR          REDREP         Ir          [  0]    ***   
       REFERENCE            IREFNC         RHF         [  0]    ***   
       RELATIVIST           IRELAT         OFF         [  0]    ***   
       RELAX_DENS           IRDENS         ON          [  1]    ***   
       RESET_FLAGS          IRESET         OFF         [  0]    ***   
       RESTART_CC           ICCRES         OFF         [  0]    ***   
       ROT_EVEC             ROTVEC              0               ***   
       SAVE_INTS            ISVINT         OFF         [  0]    ***   
       SCALE_ON             ISTCRT              0               ***   
       SCF_CONV             ISCFCV          10D- 10             ***   
       SCF_DAMPING          IDAMP               0             x 10-3  
       SCF_EXPORDE          IRPPOR              6               ***   
       SCF_EXPSTAR          IRPPLS              8               ***   
       SCF_EXTRAPO          IRPP           ON          [  1]    ***   
       SCF_MAXCYC           ISCFCY            150              cycles 
       SCF_NOSTOP           ISCFST         OFF         [  0]    ***   
       SCF_PRINT            ISCFPR              0               ***   
       SCF_PROG             ISCFPR         SCF         [  0]    ***   
       SD_FIELD             IFINSD              0             x 10-6  
       SOPERT               IPERSO         OFF         [  0]    ***   
       SPHERICAL            IDFGHI         ON          [  1]    ***   
       SPINORBIT            ISOCAL         OFF         [  0]    ***   
       SPINROTATIO          ISRCON         OFF         [  0]    ***   
       SPIN_FLIP            ISPFLP         OFF         [  0]    ***   
       SPIN_ORBIT           ISPORB         OFF         [  0]    ***   
       SPIN_SCAL            ISCSMP         OFF         [  0]    ***   
       STEEPSCALE           ISTPSC              1000          x 10-3  
       SUBGROUP             ISUBGP         DEFAULT     [  0]    ***   
       SUBGRPAXIS           ISBXYZ         X           [  0]    ***   
       SYMMETRY             ISYM           ON          [  0]    ***   
       SYM_CHECK            ISYMCK         OVERRIDE    [  1]    ***   
       T3_EXTRAPOL          IT3EXT         OFF         [  0]    ***   
       T4_EXTRAPOL          IT4EXP         OFF         [  0]    ***   
       TAMP_SUM             IEVERY              5               ***   
       TESTSUITE            ITESTS         OFF         [  0]    ***   
       THERMOCH             ITHERM         OFF         [  0]    ***   
       TOL_CHOLESK          ITOLCH          10D-  4             ***   
       TRANGRAD             IRESRM         OFF         [  0]    ***   
       TRANS_INV            ITRAIN         IGNORE      [  1]    ***   
       TREAT_PERT           ITREAT         SIMULTANEOUS[  0]    ***   
       TRIP_ALGORI          ITRALG         NORMAL      [  0]    ***   
       UIJ_THRESHO          IUIJTH              1               ***   
       UNITS                IUNITS         ANGSTROM    [  0]    ***   
       UNOS                 IUNOS          OFF         [  0]    ***   
       UPDATE_HESS          IHUPDT         ON          [  1]    ***   
       VIBPHASE             ISETPH         STANDARD    [  0]    ***   
       VIBRATION            IVIB           ANALYTIC    [  1]    ***   
       VIB_ALGORIT          IGEALG         STANDARD    [  0]    ***   
       VNATORB              IVNORB         OFF         [  0]    ***   
       VTRAN                IVTRAN         FULL/PARTIAL[  0]    ***   
       XFIELD               IXEFLD              0             x 10-6  
       XFORM_TOL            IXFTOL          10D- 11             ***   
       YFIELD               IYEFLD              0             x 10-6  
       ZFIELD               IZEFLD            ***             x 10-6  
       ZSCALE_EXP           IZEXPS         OFF         [  0]    ***   
    -------------------------------------------------------------------
   2 entries found in Z-matrix 
   Job Title : Carbon Monoxide DBOC calculation                                                
   There are  1 unique internal coordinates.
   Of these,  0 will be optimized.
   User supplied Z-matrix: 
--------------------------------------------------------------------------------
       SYMBOL    BOND      LENGTH    ANGLE     ANGLE     DIHED     ANGLE
                  TO      (ANGST)    WRT      (DEG)      WRT      (DEG)
--------------------------------------------------------------------------------
        C    
        O          1         r    
                  *Initial values for internal coordinates* 
                      Name             Value
                        r               0.9931034483
--------------------------------------------------------------------------------
  read isotopes from ZMAT file 
   Rotational constants (in cm-1): 
          2.3740134944             2.3740134944
   Rotational constants (in MHz): 
      71171.1440521857         71171.1440521857
********************************************************************************
   The full molecular point group is CXv .
   The largest Abelian subgroup of the full molecular point group is C2v .
   The computational point group is C2v .
********************************************************************************
--------------------------------------------------------------------------------
   Analysis of internal coordinates specified by Z-matrix 
--------------------------------------------------------------------------------
   *The nuclear repulsion energy is   25.576893166666665 a.u.
   *There is   1 degree of freedom within the tot. symm. molecular subspace.
   *Z-matrix requests optimization of   0 coordinates.
   *The optimization is constrained.
   *The following   1 parameters can have non-zero 
    derivatives within the totally symmetric subspace:
             r    [ 1]
   *The following   0 parameters are to be optimized:

   *The following coordinates must be varied in an  unconstrained optimization.
             r    [ 1]
--------------------------------------------------------------------------------


 ----------------------------------------------------------------
         Coordinates used in calculation (QCOMP) 
 ----------------------------------------------------------------
 Z-matrix   Atomic            Coordinates (in bohr)
  Symbol    Number           X              Y              Z
 ----------------------------------------------------------------
     C         6        -0.00000000     0.00000000     1.12599534
     O         8         0.00000000     0.00000000    -0.75069858
 ----------------------------------------------------------------
 
   Interatomic distance matrix (Angstroms) 
 
                 C             O    
                [ 1]        [ 2]
  C    [ 1]     0.00000
  O    [ 2]     0.99310     0.00000
 rotcon2
   Rotational constants (in cm-1): 
          2.3740134944             0.0000000000
   Rotational constants (in MHz): 
      71171.1440521857             0.0000000000
  ECPDATA file not present.   Using default ECPDATA. 
  @GTFLGS-I, Hessian will be transformed to curvilinear coordinates.
  There are  218 basis functions.
 @CHECKOUT-I, Total execution time (CPU/WALL):        0.18/       0.25 seconds.
--executable xjoda finished with status     0 in        0.29 seconds (walltime).
 --invoking executable--
/nfs/workspaces/public/cfour_mpi/bin/xvmol
 SERIAL VERSION OF MOLECULE STARTED
********************************************************************************
                    INPUT FROM MOL FILE
********************************************************************************
INTGRL        1    0    1    0    0    0    0    0    0                         
         *** CFOUR Program System (Release V0.1) ***                            
Carbon Monoxide DBOC calculation                                                
    2    2 X  Y       0.10E-08              0    0                              
   9999.00      3.00                                                            
          6.00000000    1    5    1    1    1    1    1                         
C #1  -0.000000000000000   0.000000000000000   1.125995342330737                
   16    9                                                                      
   33980.0000000000       9.100000000000000E-005 -1.900000000000000E-005        
  0.000000000000000E+000  0.000000000000000E+000  0.000000000000000E+000        
  0.000000000000000E+000  0.000000000000000E+000  0.000000000000000E+000        
  0.000000000000000E+000                                                        
   5089.00000000000       7.040000000000000E-004 -1.510000000000000E-004        
  0.000000000000000E+000  0.000000000000000E+000  0.000000000000000E+000        
  0.000000000000000E+000  0.000000000000000E+000  0.000000000000000E+000        
  0.000000000000000E+000                                                        
   1157.00000000000       3.693000000000000E-003 -7.850000000000000E-004        
  0.000000000000000E+000  0.000000000000000E+000  0.000000000000000E+000        
  0.000000000000000E+000  0.000000000000000E+000  0.000000000000000E+000        
  0.000000000000000E+000                                                        
   326.600000000000       1.536000000000000E-002 -3.324000000000000E-003        
  0.000000000000000E+000  0.000000000000000E+000  0.000000000000000E+000        
  0.000000000000000E+000  0.000000000000000E+000  0.000000000000000E+000        
  0.000000000000000E+000                                                        
   106.100000000000       5.292900000000000E-002 -1.151200000000000E-002        
  0.000000000000000E+000  0.000000000000000E+000  0.000000000000000E+000        
  0.000000000000000E+000  0.000000000000000E+000  0.000000000000000E+000        
  0.000000000000000E+000                                                        
   38.1100000000000       0.147043000000000      -3.416000000000000E-002        
  0.000000000000000E+000  0.000000000000000E+000  0.000000000000000E+000        
  0.000000000000000E+000  0.000000000000000E+000  0.000000000000000E+000        
  0.000000000000000E+000                                                        
   14.7500000000000       0.305631000000000      -7.717300000000001E-002        
  0.000000000000000E+000  0.000000000000000E+000  0.000000000000000E+000        
  0.000000000000000E+000  0.000000000000000E+000  0.000000000000000E+000        
  0.000000000000000E+000                                                        
   6.03500000000000       0.399345000000000      -0.141493000000000             
  0.000000000000000E+000  0.000000000000000E+000  0.000000000000000E+000        
  0.000000000000000E+000  0.000000000000000E+000  0.000000000000000E+000        
  0.000000000000000E+000                                                        
   2.53000000000000       0.217051000000000      -0.118019000000000             
  0.000000000000000E+000  0.000000000000000E+000  0.000000000000000E+000        
  0.000000000000000E+000  0.000000000000000E+000  0.000000000000000E+000        
  0.000000000000000E+000                                                        
  0.735500000000000       1.589400000000000E-002  0.273806000000000             
   1.00000000000000       0.000000000000000E+000  0.000000000000000E+000        
  0.000000000000000E+000  0.000000000000000E+000  0.000000000000000E+000        
  0.000000000000000E+000                                                        
  0.290500000000000      -3.084000000000000E-003  0.586510000000000             
  0.000000000000000E+000   1.00000000000000       0.000000000000000E+000        
  0.000000000000000E+000  0.000000000000000E+000  0.000000000000000E+000        
  0.000000000000000E+000                                                        
  0.111100000000000       9.779999999999999E-004  0.285430000000000             
  0.000000000000000E+000  0.000000000000000E+000   1.00000000000000             
  0.000000000000000E+000  0.000000000000000E+000  0.000000000000000E+000        
  0.000000000000000E+000                                                        
   7.21600000000000       0.000000000000000E+000  0.000000000000000E+000        
  0.000000000000000E+000  0.000000000000000E+000  0.000000000000000E+000        
   1.00000000000000       0.000000000000000E+000  0.000000000000000E+000        
  0.000000000000000E+000                                                        
   19.5700000000000       0.000000000000000E+000  0.000000000000000E+000        
  0.000000000000000E+000  0.000000000000000E+000  0.000000000000000E+000        
  0.000000000000000E+000   1.00000000000000       0.000000000000000E+000        
  0.000000000000000E+000                                                        
   53.0730000000000       0.000000000000000E+000  0.000000000000000E+000        
  0.000000000000000E+000  0.000000000000000E+000  0.000000000000000E+000        
  0.000000000000000E+000  0.000000000000000E+000   1.00000000000000             
  0.000000000000000E+000                                                        
  4.145000000000000E-002  0.000000000000000E+000  0.000000000000000E+000        
  0.000000000000000E+000  0.000000000000000E+000  0.000000000000000E+000        
  0.000000000000000E+000  0.000000000000000E+000  0.000000000000000E+000        
   1.00000000000000                                                             
   10    8                                                                      
   34.5100000000000       5.378000000000000E-003  0.000000000000000E+000        
  0.000000000000000E+000  0.000000000000000E+000  0.000000000000000E+000        
  0.000000000000000E+000  0.000000000000000E+000  0.000000000000000E+000        
   7.91500000000000       3.613200000000000E-002  0.000000000000000E+000        
  0.000000000000000E+000  0.000000000000000E+000  0.000000000000000E+000        
  0.000000000000000E+000  0.000000000000000E+000  0.000000000000000E+000        
   2.36800000000000       0.142493000000000       0.000000000000000E+000        
  0.000000000000000E+000  0.000000000000000E+000  0.000000000000000E+000        
  0.000000000000000E+000  0.000000000000000E+000  0.000000000000000E+000        
  0.813200000000000       0.342150000000000        1.00000000000000             
  0.000000000000000E+000  0.000000000000000E+000  0.000000000000000E+000        
  0.000000000000000E+000  0.000000000000000E+000  0.000000000000000E+000        
  0.289000000000000       0.463864000000000       0.000000000000000E+000        
   1.00000000000000       0.000000000000000E+000  0.000000000000000E+000        
  0.000000000000000E+000  0.000000000000000E+000  0.000000000000000E+000        
  0.100700000000000       0.250028000000000       0.000000000000000E+000        
  0.000000000000000E+000   1.00000000000000       0.000000000000000E+000        
  0.000000000000000E+000  0.000000000000000E+000  0.000000000000000E+000        
   8.18200000000000       0.000000000000000E+000  0.000000000000000E+000        
  0.000000000000000E+000  0.000000000000000E+000   1.00000000000000             
  0.000000000000000E+000  0.000000000000000E+000  0.000000000000000E+000        
   24.1860000000000       0.000000000000000E+000  0.000000000000000E+000        
  0.000000000000000E+000  0.000000000000000E+000  0.000000000000000E+000        
   1.00000000000000       0.000000000000000E+000  0.000000000000000E+000        
   71.4940000000000       0.000000000000000E+000  0.000000000000000E+000        
  0.000000000000000E+000  0.000000000000000E+000  0.000000000000000E+000        
  0.000000000000000E+000   1.00000000000000       0.000000000000000E+000        
  3.218000000000000E-002  0.000000000000000E+000  0.000000000000000E+000        
  0.000000000000000E+000  0.000000000000000E+000  0.000000000000000E+000        
  0.000000000000000E+000  0.000000000000000E+000   1.00000000000000             
    6    6                                                                      
   1.84800000000000        1.00000000000000       0.000000000000000E+000        
  0.000000000000000E+000  0.000000000000000E+000  0.000000000000000E+000        
  0.000000000000000E+000                                                        
  0.649000000000000       0.000000000000000E+000   1.00000000000000             
  0.000000000000000E+000  0.000000000000000E+000  0.000000000000000E+000        
  0.000000000000000E+000                                                        
  0.228000000000000       0.000000000000000E+000  0.000000000000000E+000        
   1.00000000000000       0.000000000000000E+000  0.000000000000000E+000        
  0.000000000000000E+000                                                        
   8.65600000000000       0.000000000000000E+000  0.000000000000000E+000        
  0.000000000000000E+000   1.00000000000000       0.000000000000000E+000        
  0.000000000000000E+000                                                        
   33.2130000000000       0.000000000000000E+000  0.000000000000000E+000        
  0.000000000000000E+000  0.000000000000000E+000   1.00000000000000             
  0.000000000000000E+000                                                        
  7.660000000000000E-002  0.000000000000000E+000  0.000000000000000E+000        
  0.000000000000000E+000  0.000000000000000E+000  0.000000000000000E+000        
   1.00000000000000                                                             
    4    4                                                                      
   1.41900000000000        1.00000000000000       0.000000000000000E+000        
  0.000000000000000E+000  0.000000000000000E+000                                
  0.485000000000000       0.000000000000000E+000   1.00000000000000             
  0.000000000000000E+000  0.000000000000000E+000                                
   24.6940000000000       0.000000000000000E+000  0.000000000000000E+000        
   1.00000000000000       0.000000000000000E+000                                
  0.187000000000000       0.000000000000000E+000  0.000000000000000E+000        
  0.000000000000000E+000   1.00000000000000                                     
    2    2                                                                      
   1.01100000000000        1.00000000000000       0.000000000000000E+000        
  0.424000000000000       0.000000000000000E+000   1.00000000000000             
          8.00000000    1    5    1    1    1    1    1                         
O #2   0.000000000000000   0.000000000000000  -0.750698581642659                
   16    9                                                                      
   61420.0000000000       9.000000000000001E-005 -2.000000000000000E-005        
  0.000000000000000E+000  0.000000000000000E+000  0.000000000000000E+000        
  0.000000000000000E+000  0.000000000000000E+000  0.000000000000000E+000        
  0.000000000000000E+000                                                        
   9199.00000000000       6.980000000000001E-004 -1.590000000000000E-004        
  0.000000000000000E+000  0.000000000000000E+000  0.000000000000000E+000        
  0.000000000000000E+000  0.000000000000000E+000  0.000000000000000E+000        
  0.000000000000000E+000                                                        
   2091.00000000000       3.664000000000000E-003 -8.290000000000000E-004        
  0.000000000000000E+000  0.000000000000000E+000  0.000000000000000E+000        
  0.000000000000000E+000  0.000000000000000E+000  0.000000000000000E+000        
  0.000000000000000E+000                                                        
   590.900000000000       1.521800000000000E-002 -3.508000000000000E-003        
  0.000000000000000E+000  0.000000000000000E+000  0.000000000000000E+000        
  0.000000000000000E+000  0.000000000000000E+000  0.000000000000000E+000        
  0.000000000000000E+000                                                        
   192.300000000000       5.242300000000000E-002 -1.215600000000000E-002        
  0.000000000000000E+000  0.000000000000000E+000  0.000000000000000E+000        
  0.000000000000000E+000  0.000000000000000E+000  0.000000000000000E+000        
  0.000000000000000E+000                                                        
   69.3200000000000       0.145921000000000      -3.626100000000000E-002        
  0.000000000000000E+000  0.000000000000000E+000  0.000000000000000E+000        
  0.000000000000000E+000  0.000000000000000E+000  0.000000000000000E+000        
  0.000000000000000E+000                                                        
   26.9700000000000       0.305258000000000      -8.299200000000000E-002        
  0.000000000000000E+000  0.000000000000000E+000  0.000000000000000E+000        
  0.000000000000000E+000  0.000000000000000E+000  0.000000000000000E+000        
  0.000000000000000E+000                                                        
   11.1000000000000       0.398508000000000      -0.152090000000000             
  0.000000000000000E+000  0.000000000000000E+000  0.000000000000000E+000        
  0.000000000000000E+000  0.000000000000000E+000  0.000000000000000E+000        
  0.000000000000000E+000                                                        
   4.68200000000000       0.216980000000000      -0.115331000000000             
  0.000000000000000E+000  0.000000000000000E+000  0.000000000000000E+000        
  0.000000000000000E+000  0.000000000000000E+000  0.000000000000000E+000        
  0.000000000000000E+000                                                        
   1.42800000000000       1.759400000000000E-002  0.288979000000000             
   1.00000000000000       0.000000000000000E+000  0.000000000000000E+000        
  0.000000000000000E+000  0.000000000000000E+000  0.000000000000000E+000        
  0.000000000000000E+000                                                        
  0.554700000000000      -2.502000000000000E-003  0.586128000000000             
  0.000000000000000E+000   1.00000000000000       0.000000000000000E+000        
  0.000000000000000E+000  0.000000000000000E+000  0.000000000000000E+000        
  0.000000000000000E+000                                                        
  0.206700000000000       9.540000000000000E-004  0.277624000000000             
  0.000000000000000E+000  0.000000000000000E+000   1.00000000000000             
  0.000000000000000E+000  0.000000000000000E+000  0.000000000000000E+000        
  0.000000000000000E+000                                                        
   12.9740000000000       0.000000000000000E+000  0.000000000000000E+000        
  0.000000000000000E+000  0.000000000000000E+000  0.000000000000000E+000        
   1.00000000000000       0.000000000000000E+000  0.000000000000000E+000        
  0.000000000000000E+000                                                        
   34.9000000000000       0.000000000000000E+000  0.000000000000000E+000        
  0.000000000000000E+000  0.000000000000000E+000  0.000000000000000E+000        
  0.000000000000000E+000   1.00000000000000       0.000000000000000E+000        
  0.000000000000000E+000                                                        
   93.8810000000000       0.000000000000000E+000  0.000000000000000E+000        
  0.000000000000000E+000  0.000000000000000E+000  0.000000000000000E+000        
  0.000000000000000E+000  0.000000000000000E+000   1.00000000000000             
  0.000000000000000E+000                                                        
  6.959000000000000E-002  0.000000000000000E+000  0.000000000000000E+000        
  0.000000000000000E+000  0.000000000000000E+000  0.000000000000000E+000        
  0.000000000000000E+000  0.000000000000000E+000  0.000000000000000E+000        
   1.00000000000000                                                             
   10    8                                                                      
   63.4200000000000       6.044000000000000E-003  0.000000000000000E+000        
  0.000000000000000E+000  0.000000000000000E+000  0.000000000000000E+000        
  0.000000000000000E+000  0.000000000000000E+000  0.000000000000000E+000        
   14.6600000000000       4.179900000000000E-002  0.000000000000000E+000        
  0.000000000000000E+000  0.000000000000000E+000  0.000000000000000E+000        
  0.000000000000000E+000  0.000000000000000E+000  0.000000000000000E+000        
   4.45900000000000       0.161143000000000       0.000000000000000E+000        
  0.000000000000000E+000  0.000000000000000E+000  0.000000000000000E+000        
  0.000000000000000E+000  0.000000000000000E+000  0.000000000000000E+000        
   1.53100000000000       0.356731000000000        1.00000000000000             
  0.000000000000000E+000  0.000000000000000E+000  0.000000000000000E+000        
  0.000000000000000E+000  0.000000000000000E+000  0.000000000000000E+000        
  0.530200000000000       0.448309000000000       0.000000000000000E+000        
   1.00000000000000       0.000000000000000E+000  0.000000000000000E+000        
  0.000000000000000E+000  0.000000000000000E+000  0.000000000000000E+000        
  0.175000000000000       0.244940000000000       0.000000000000000E+000        
  0.000000000000000E+000   1.00000000000000       0.000000000000000E+000        
  0.000000000000000E+000  0.000000000000000E+000  0.000000000000000E+000        
   14.4750000000000       0.000000000000000E+000  0.000000000000000E+000        
  0.000000000000000E+000  0.000000000000000E+000   1.00000000000000             
  0.000000000000000E+000  0.000000000000000E+000  0.000000000000000E+000        
   42.7300000000000       0.000000000000000E+000  0.000000000000000E+000        
  0.000000000000000E+000  0.000000000000000E+000  0.000000000000000E+000        
   1.00000000000000       0.000000000000000E+000  0.000000000000000E+000        
   126.140000000000       0.000000000000000E+000  0.000000000000000E+000        
  0.000000000000000E+000  0.000000000000000E+000  0.000000000000000E+000        
  0.000000000000000E+000   1.00000000000000       0.000000000000000E+000        
  5.348000000000000E-002  0.000000000000000E+000  0.000000000000000E+000        
  0.000000000000000E+000  0.000000000000000E+000  0.000000000000000E+000        
  0.000000000000000E+000  0.000000000000000E+000   1.00000000000000             
    6    6                                                                      
   3.77500000000000        1.00000000000000       0.000000000000000E+000        
  0.000000000000000E+000  0.000000000000000E+000  0.000000000000000E+000        
  0.000000000000000E+000                                                        
   1.30000000000000       0.000000000000000E+000   1.00000000000000             
  0.000000000000000E+000  0.000000000000000E+000  0.000000000000000E+000        
  0.000000000000000E+000                                                        
  0.444000000000000       0.000000000000000E+000  0.000000000000000E+000        
   1.00000000000000       0.000000000000000E+000  0.000000000000000E+000        
  0.000000000000000E+000                                                        
   14.9270000000000       0.000000000000000E+000  0.000000000000000E+000        
  0.000000000000000E+000   1.00000000000000       0.000000000000000E+000        
  0.000000000000000E+000                                                        
   57.5440000000000       0.000000000000000E+000  0.000000000000000E+000        
  0.000000000000000E+000  0.000000000000000E+000   1.00000000000000             
  0.000000000000000E+000                                                        
  0.154000000000000       0.000000000000000E+000  0.000000000000000E+000        
  0.000000000000000E+000  0.000000000000000E+000  0.000000000000000E+000        
   1.00000000000000                                                             
    4    4                                                                      
   2.66600000000000        1.00000000000000       0.000000000000000E+000        
  0.000000000000000E+000  0.000000000000000E+000                                
  0.859000000000000       0.000000000000000E+000   1.00000000000000             
  0.000000000000000E+000  0.000000000000000E+000                                
   26.4830000000000       0.000000000000000E+000  0.000000000000000E+000        
   1.00000000000000       0.000000000000000E+000                                
  0.324000000000000       0.000000000000000E+000  0.000000000000000E+000        
  0.000000000000000E+000   1.00000000000000                                     
    2    2                                                                      
   1.84600000000000        1.00000000000000       0.000000000000000E+000        
  0.714000000000000       0.000000000000000E+000   1.00000000000000             
FINISH                                                                          
 
********************************************************************************
 ONE- AND TWO-ELECTRON INTEGRALS OVER SYMMETRY-ADAPTED AOS ARE CALCULATED.

  SPHERICAL HARMONICS ARE USED.
  
  INTEGRALS LESS THAN  0.10E-13 ARE NEGLECTED.

  NUCLEAR REPULSION ENERGY :   25.5768931667 A.U.
  @MOLECU-I, ONE ELECTRON INTEGRALS (CPU/WALL):        0.07/       0.10 SECONDS.
  @TWOEL-I,    4668025 INTEGRALS OF SYMMETRY TYPE  I I I I
  @TWOEL-I,   19975200 INTEGRALS OF SYMMETRY TYPE  I J I J
  @TWOEL-I,   10534210 INTEGRALS OF SYMMETRY TYPE  I I J J
  @TWOEL-I,   14757730 INTEGRALS OF SYMMETRY TYPE  I J K L
  @TWOEL-I, TOTAL NUMBER OF 2-E INTEGRALS   49935165.
  @MOLECU-I, TWO ELECTRON INTEGRALS (CPU/WALL):      246.57/      33.27 SECONDS.
 @CHECKOUT-I, Total execution time (CPU/WALL):      246.66/      33.40 seconds.

Running with 14 threads/proc

--executable xvmol finished with status     0 in       33.43 seconds (walltime).
 --invoking executable--
/nfs/workspaces/public/cfour_mpi/bin/xvmol2ja
 @GETMEM-I,  Allocated    3814 MB of main memory.
 @CHECKOUT-I, Total execution time (CPU/WALL):        0.14/       0.08 seconds.
--executable xvmol2ja finished with status     0 in        0.12 seconds (walltime).
 --invoking executable--
/nfs/workspaces/public/cfour_mpi/bin/xvprop
 @GETMEM-I,  Allocated    3814 MB of main memory.
   Property integrals will be calculated.
    --------------------------------------------------------------
                                   Property evaluated at 
    Property type                X             Y             Z
    --------------------------------------------------------------
    Dipole moment               ----          ----          ----  
    Quadrupole moment           ----          ----          ----  
    Octopole moment             ----          ----          ----  
    Relativisitic corr.         ----          ----          ----  
    Second moment            0.0000000     0.0000000     0.0000000
    Electron density         0.0000000     0.0000000     1.1259953
    Electron density         0.0000000     0.0000000    -0.7506986
    Field gradient           0.0000000     0.0000000     1.1259953
    Field gradient           0.0000000     0.0000000    -0.7506986
    Potential                0.0000000     0.0000000     1.1259953
    Potential                0.0000000     0.0000000    -0.7506986
    --------------------------------------------------------------
 @CHECKOUT-I, Total execution time (CPU/WALL):        1.31/       1.36 seconds.
--executable xvprop finished with status     0 in        1.39 seconds (walltime).
 --invoking executable--
/nfs/workspaces/public/cfour_mpi/bin/xvscf
  There are  218 functions in the AO basis.

  There are 4 irreducible representations.

       Irrep        # of functions
         1                 86
         2                 52
         3                 52
         4                 28


  Parameters for SCF calculation: 
        SCF reference function:  RHF  
  Maximum number of iterations:  150
     Full symmetry point group: CXv 
     Computational point group: C2v 
        Initial density matrix: MOREAD                 
     SCF convergence tolerance: 10**(-10)
  DIIS convergence acceleration:  ON
          Latest start for DIIS:   8
                     DIIS order:   6

  Memory information:    2523578 words required.
  Fock matrices are constructed from AO integral file.
 @GETMEM-I,  Allocated      19 MB of main memory.
  Initialization and symmetry analysis required      0.001 seconds.

  Adding electric field perturbation to one-electron Hamiltonian.
  Field direction     : Z
  Field strength      : -0.0002000 a.u.

  @INITGES-I, Occupancies from core Hamiltonian:

          Alpha population by irrep:   5    1    1    0
           Beta population by irrep:   5    1    1    0


 total no. of electrons in initial guess :  0.000000000000000E+000
  --------------------------------------------------------------------
  Iteration         Total Energy            Largest Density Difference
  --------------------------------------------------------------------
       0            25.577043243346456              0.0000000000D+00
   current occupation vector 
     5  1  1  0
     5  1  1  0
       1           -90.495052781124556              0.1986135304D+02
   current occupation vector 
     5  1  1  0
     5  1  1  0
       2           -93.019803075572256              0.9741604546D+02
   current occupation vector 
     5  1  1  0
     5  1  1  0
       3          -103.453534515665069              0.9740322805D+02
   current occupation vector 
     5  1  1  0
     5  1  1  0
       4          -100.869903699810365              0.1402725915D+02
   current occupation vector 
     5  1  1  0
     5  1  1  0
       5          -105.760541399008815              0.1404934738D+02
   current occupation vector 
     5  1  1  0
     5  1  1  0
       6          -103.132306991694492              0.9276037045D+01
   current occupation vector 
     5  1  1  0
     5  1  1  0
       7          -104.724634253177015              0.9045482066D+01
   current occupation vector 
     5  1  1  0
     5  1  1  0
       8          -102.102881383260154              0.5139349812D+01
   current occupation vector 
     5  1  1  0
     5  1  1  0
       9          -111.708074257424812              0.3367858243D+01
   current occupation vector 
     5  1  1  0
     5  1  1  0
      10          -112.611277313528120              0.8411396552D+00
   current occupation vector 
     5  1  1  0
     5  1  1  0
      11          -112.747900876292931              0.3190015689D+00
   current occupation vector 
     5  1  1  0
     5  1  1  0
      12          -112.749339335367523              0.3183305645D-01
   current occupation vector 
     5  1  1  0
     5  1  1  0
      13          -112.749400999431828              0.1195809292D-01
   current occupation vector 
     5  1  1  0
     5  1  1  0
      14          -112.749404815135051              0.2824461591D-02
   current occupation vector 
     5  1  1  0
     5  1  1  0
      15          -112.749404933495867              0.3723817150D-03
   current occupation vector 
     5  1  1  0
     5  1  1  0
      16          -112.749404936298475              0.4332823968D-04
   current occupation vector 
     5  1  1  0
     5  1  1  0
      17          -112.749404936439930              0.1722438949D-04
   current occupation vector 
     5  1  1  0
     5  1  1  0
      18          -112.749404936452095              0.2408444182D-05
   current occupation vector 
     5  1  1  0
     5  1  1  0
      19          -112.749404936453544              0.5601610675D-06
   current occupation vector 
     5  1  1  0
     5  1  1  0
      20          -112.749404936452152              0.6262234864D-07
   current occupation vector 
     5  1  1  0
     5  1  1  0
      21          -112.749404936453885              0.2261545695D-07
   current occupation vector 
     5  1  1  0
     5  1  1  0
      22          -112.749404936452265              0.4740079884D-08
   current occupation vector 
     5  1  1  0
     5  1  1  0
      23          -112.749404936452351              0.8110595529D-09
   current occupation vector 
     5  1  1  0
     5  1  1  0
      24          -112.749404936452663              0.2168225738D-09
   current occupation vector 
     5  1  1  0
     5  1  1  0

  SCF has converged.

 Density matrix saved to file den.dat
 total electron number:   14.0000000000000     
     E(SCF)=      -112.749404936451924              0.8673572971D-10

  Eigenvector printing suppressed.

 @PUTMOS-I, Writing converged MOs to NEWMOS. 
 @PUTMOS-I, Symmetry   1 Full Blocks 21 Partial Blocksize   2
 @PUTMOS-I, Symmetry   2 Full Blocks 13 Partial Blocksize   0
 @PUTMOS-I, Symmetry   3 Full Blocks 13 Partial Blocksize   0
 @PUTMOS-I, Symmetry   4 Full Blocks  7 Partial Blocksize   0
 @PUTFOCK-I, Writing converged Fock matrix to NEWFOCK. 
 @PUTFOCK-I, Symmetry   1 Full Blocks 21 Partial Blocksize   2
 @PUTFOCK-I, Symmetry   2 Full Blocks 13 Partial Blocksize   0
 @PUTFOCK-I, Symmetry   3 Full Blocks 13 Partial Blocksize   0
 @PUTFOCK-I, Symmetry   4 Full Blocks  7 Partial Blocksize   0


 
  ORBITAL EIGENVALUES (ALPHA)  (1H = 27.2113834 eV)

       MO #        E(hartree)               E(eV)           FULLSYM    COMPSYM
       ----   --------------------   --------------------   -------   ---------
    1     1         -20.6558623881        -562.0745908999     SG+        A1 (1)
    2     2         -11.2983863488        -307.4447227380     SG+        A1 (1)
    3     3          -1.6179140844         -44.0256804582     SG+        A1 (1)
    4     4          -0.8164376139         -22.2163969348     SG+        A1 (1)
    5    87          -0.7065119059         -19.2251663471      PI        B1 (2)
    6   139          -0.7065119059         -19.2251663471      PI        B2 (3)
    7     5          -0.5360158195         -14.5857319721     SG+        A1 (1)
  +++++++++++++++++++++++++++++++++++++++++++++++++++++++++++++++++++++++++++++
    8     6           0.0581159043           1.5814141534     SG+        A1 (1)
    9   140           0.0644356816           1.7533840374      PI        B2 (3)
   10    88           0.0644356816           1.7533840374      PI        B1 (2)
   11     7           0.0756114231           2.0574914241     SG+        A1 (1)
   12   141           0.1550061265           4.2179311383      PI        B2 (3)
   13    89           0.1550061265           4.2179311383      PI        B1 (2)
   14     8           0.1565271871           4.2593213017     SG+        A1 (1)
   15   142           0.1905081347           5.1839898939      PI        B2 (3)
   16    90           0.1905081347           5.1839898939      PI        B1 (2)
   17     9           0.2271191609           6.1802265654     SG+        A1 (1)
   18   191           0.2273421648           6.1862948094      DE        A2 (4)
   19    10           0.2273421648           6.1862948094      DE        A1 (1)
   20    11           0.3019225089           8.2157291476     SG+        A1 (1)
   21   143           0.3372581222           9.1772600673      PI        B2 (3)
   22    91           0.3372581222           9.1772600673      PI        B1 (2)
   23    12           0.3964928727          10.7891195737     SG+        A1 (1)
   24   144           0.4021771258          10.9437959638      PI        B2 (3)
   25    92           0.4021771258          10.9437959638      PI        B1 (2)
   26    13           0.5081159529          13.8265380070     SG+        A1 (1)
   27   192           0.5244273289          14.2703931125      DE        A2 (4)
   28    14           0.5244273289          14.2703931125      DE        A1 (1)
   29   145           0.6188834726          16.8406754539      PI        B2 (3)
   30    93           0.6188834726          16.8406754539      PI        B1 (2)
   31    15           0.6620717487          18.0158881928     SG+        A1 (1)
   32    94           0.7500423254          20.4096892835      PH        B1 (2)
   33   146           0.7500423254          20.4096892835      PH        B2 (3)
   34   193           0.7703788349          20.9630738400      DE        A2 (4)
   35    16           0.7703788349          20.9630738400      DE        A1 (1)
   36    17           0.7891303312          21.4733279954     SG+        A1 (1)
   37   147           0.8407016036          22.8766536604      PI        B2 (3)
   38    95           0.8407016036          22.8766536605      PI        B1 (2)
   39   148           0.8723453071          23.7377226096      PI        B2 (3)
   40    96           0.8723453071          23.7377226097      PI        B1 (2)
   41    18           0.8771928309          23.8696304374     SG+        A1 (1)
   42   194           0.9022468887          24.5513860108      DE        A2 (4)
   43    19           0.9022468887          24.5513860109      DE        A1 (1)
   44    20           0.9555139347          26.0008560211     SG+        A1 (1)
   45   149           1.1124639223          30.2716823083      PI        B2 (3)
   46    97           1.1124639223          30.2716823083      PI        B1 (2)
   47    21           1.3183941725          35.8753293005     SG+        A1 (1)
   48   150           1.4567286966          39.6396030724      PH        B2 (3)
   49    98           1.4567286966          39.6396030724      PH        B1 (2)
   50   195           1.5004022558          40.8280210359      DE        A2 (4)
   51    22           1.5004022558          40.8280210359      DE        A1 (1)
   52   151           1.5321299156          41.6913745521      PI        B2 (3)
   53    99           1.5321299156          41.6913745521      PI        B1 (2)
   54    23           1.5469064144          42.0934635270     SG+        A1 (1)
   55    24           1.6547435795          45.0278619707     SG+        A1 (1)
   56    25           1.7552135604          47.7617891409     SG+        A1 (1)
   57   196           1.7764368389          48.3393039095      DE        A2 (4)
   58    26           1.7764368389          48.3393039097      DE        A1 (1)
   59   152           1.8702017577          50.8907770630      PI        B2 (3)
   60   100           1.8702017577          50.8907770632      PI        B1 (2)
   61   153           1.9677943210          53.5464057198      PI        B2 (3)
   62   101           1.9677943210          53.5464057198      PI        B1 (2)
   63   197           2.1134471718          57.5098212887      PI        A2 (4)
   64    27           2.1134471718          57.5098212887      PI        A1 (1)
   65    28           2.2131521482          60.2229316281     SG+        A1 (1)
   66   198           2.2273381180          60.6089514893      DE        A2 (4)
   67    29           2.2273381180          60.6089514893      DE        A1 (1)
   68   102           2.2615028180          61.5386202412      PH        B1 (2)
   69   154           2.2615028180          61.5386202412      PH        B2 (3)
   70    30           2.3369784495          63.5924165865     SG+        A1 (1)
   71   155           2.3495750908          63.9351886219      PI        B2 (3)
   72   103           2.3495750908          63.9351886219      PI        B1 (2)
   73   199           2.3840341448          64.8728671521      DE        A2 (4)
   74    31           2.3840341448          64.8728671521      DE        A1 (1)
   75   104           2.4150644961          65.7172459381      PH        B1 (2)
   76   156           2.4150644961          65.7172459381      PH        B2 (3)
   77    32           2.5660529485          69.8258506053     SG+        A1 (1)
   78   105           2.6110239451          71.0495736359      PI        B1 (2)
   79   157           2.6110239451          71.0495736359      PI        B2 (3)
   80   158           2.9835042821          81.1852788953      PI        B2 (3)
   81   106           2.9835042821          81.1852788953      PI        B1 (2)
   82   200           3.1170057124          84.8180375004      DE        A2 (4)
   83    33           3.1170057124          84.8180375007      DE        A1 (1)
   84    34           3.1195208134          84.8864768786     SG+        A1 (1)
   85    35           3.3983038009          92.4725476351     SG+        A1 (1)
   86   159           3.7570437092         102.2343568206      PI        B2 (3)
   87   107           3.7570437092         102.2343568207      PI        B1 (2)
   88   201           3.7574970088         102.2466917318      PI        A2 (4)
   89    36           3.7574970088         102.2466917318      PI        A1 (1)
   90    37           3.9902181494         108.5793559140     SG+        A1 (1)
   91   160           4.0676634776         110.6867504303      PH        B2 (3)
   92   108           4.0676634776         110.6867504303      PH        B1 (2)
   93   202           4.1796380754         113.7337341438      DE        A2 (4)
   94    38           4.1796380754         113.7337341438      DE        A1 (1)
   95   109           4.2114595021         114.5996391860      PI        B1 (2)
   96   161           4.2114595021         114.5996391860      PI        B2 (3)
   97    39           4.3240917800         117.6645192822     SG+        A1 (1)
   98   203           4.4422364581         120.8793994138      DE        A2 (4)
   99    40           4.4422364581         120.8793994138      DE        A1 (1)
  100   162           4.4455906261         120.9706709668      PH        B2 (3)
  101   110           4.4455906261         120.9706709668      PH        B1 (2)
  102    41           4.6865408392         127.5272595940     SG+        A1 (1)
  103   163           4.8487350561         131.9407886152      PI        B2 (3)
  104   111           4.8487350561         131.9407886152      PI        B1 (2)
  105    42           5.0343078281         136.9904804651     SG+        A1 (1)
  106   204           5.1995903845         141.4880474761      DE        A2 (4)
  107    43           5.1995903845         141.4880474762      DE        A1 (1)
  108   112           5.3016488829         144.2652004053      PI        B1 (2)
  109   164           5.3016488829         144.2652004053      PI        B2 (3)
  110   205           5.9217481397         161.1389590269      PI        A2 (4)
  111    44           5.9217481397         161.1389590269      PI        A1 (1)
  112   113           5.9639106971         162.2862605423      PI        B1 (2)
  113   165           5.9639106971         162.2862605424      PI        B2 (3)
  114    45           6.1707090085         167.9135286798     SG+        A1 (1)
  115   114           6.2768997053         170.8031244440      PH        B1 (2)
  116   166           6.2768997053         170.8031244440      PH        B2 (3)
  117    46           6.2866420669         171.0682275813     SG+        A1 (1)
  118   206           6.3343608735         172.3667223219      DE        A2 (4)
  119    47           6.3343608735         172.3667223219      DE        A1 (1)
  120   115           6.3811415373         173.6396889003      PI        B1 (2)
  121   167           6.3811415373         173.6396889003      PI        B2 (3)
  122   168           6.4929245740         176.6814599704      PH        B2 (3)
  123   116           6.4929245740         176.6814599704      PH        B1 (2)
  124   207           6.7080119403         182.5342847598      DE        A2 (4)
  125    48           6.7080119403         182.5342847598      DE        A1 (1)
  126    49           7.1373518622         194.2172179819     SG+        A1 (1)
  127   169           7.8459696951         213.4996895183      PI        B2 (3)
  128   117           7.8459696951         213.4996895183      PI        B1 (2)
  129   208           7.9270490046         215.7059696947      DE        A2 (4)
  130    50           7.9270490046         215.7059696948      DE        A1 (1)
  131    51           8.3160179095         226.2903516979     SG+        A1 (1)
  132    52           8.7622540394         238.4330541145     SG+        A1 (1)
  133   118           8.8792297495         241.6161250105      PI        B1 (2)
  134   170           8.8792297495         241.6161250105      PI        B2 (3)
  135    53           9.9164371922         269.8399743999     SG+        A1 (1)
  136   171          10.1530122461         276.2775088948      PI        B2 (3)
  137   119          10.1530122462         276.2775088950      PI        B1 (2)
  138    54          10.6029120438         288.5199047791      PI        A1 (1)
  139   209          10.6029120438         288.5199047791      PI        A2 (4)
  140   172          11.0046032164         299.4504772852      PH        B2 (3)
  141   120          11.0046032164         299.4504772852      PH        B1 (2)
  142   210          11.2989572495         307.4602577369      DE        A2 (4)
  143    55          11.2989572495         307.4602577369      DE        A1 (1)
  144    56          11.3381920798         308.5278917466     SG+        A1 (1)
  145   121          11.4379343702         311.2420174525      PI        B1 (2)
  146   173          11.4379343702         311.2420174525      PI        B2 (3)
  147   174          11.8656543899         322.8808708944      PH        B2 (3)
  148   122          11.8656543899         322.8808708944      PH        B1 (2)
  149   211          12.4297902056         338.2317868655      DE        A2 (4)
  150    57          12.4297902056         338.2317868659      DE        A1 (1)
  151    58          12.5495523989         341.4906818240     SG+        A1 (1)
  152   175          13.0493012089         355.0895382987      PI        B2 (3)
  153   123          13.0493012089         355.0895382987      PI        B1 (2)
  154   212          13.0513373766         355.1449452386      DE        A2 (4)
  155    59          13.0513373766         355.1449452386      DE        A1 (1)
  156    60          13.9762984674         380.3144161079     SG+        A1 (1)
  157   176          14.9591854896         407.0601317080      PI        B2 (3)
  158   124          14.9591854896         407.0601317080      PI        B1 (2)
  159    61          15.7264123204         427.9374351572     SG+        A1 (1)
  160    62          18.6371068468         507.1414598743     SG+        A1 (1)
  161   125          19.6344896983         534.2816270443      PI        B1 (2)
  162   177          19.6344896983         534.2816270446      PI        B2 (3)
  163    63          21.3406294588         580.7080502014     SG+        A1 (1)
  164   213          26.7046282564         726.6698780387      DE        A2 (4)
  165    64          26.7046282564         726.6698780387      DE        A1 (1)
  166   126          27.5676074699         750.1527362853      PI        B1 (2)
  167   178          27.5676074699         750.1527362853      PI        B2 (3)
  168    65          28.8250690761         784.3700061614     SG+        A1 (1)
  169   179          33.9263591832         923.1831671001      PI        B2 (3)
  170   127          33.9263591832         923.1831671007      PI        B1 (2)
  171    66          35.7824031837         973.6886920038     SG+        A1 (1)
  172    67          37.4095799900        1017.9664239415     SG+        A1 (1)
  173    68          47.1877250650        1284.0432785178      DE        A1 (1)
  174   214          47.1877250650        1284.0432785178      DE        A2 (4)
  175   180          48.1019324640        1308.9201265578      PI        B2 (3)
  176   128          48.1019324640        1308.9201265578      PI        B1 (2)
  177    69          48.7769412214        1327.2880486560     SG+        A1 (1)
  178    70          64.7199467824        1761.1192855239     SG+        A1 (1)
  179   129          67.0654861030        1824.9446552574      PI        B1 (2)
  180   181          67.0654861031        1824.9446552576      PI        B2 (3)
  181    71          68.3406860553        1859.6446100688     SG+        A1 (1)
  182   182          98.7479154342        2687.0673868305      PH        B2 (3)
  183   130          98.7479154342        2687.0673868305      PH        B1 (2)
  184    72          98.7895945808        2688.2015340697      DE        A1 (1)
  185   215          98.7895945808        2688.2015340697      DE        A2 (4)
  186   183          98.8588907382        2690.0871783761      PI        B2 (3)
  187   131          98.8588907382        2690.0871783761      PI        B1 (2)
  188    73          98.8954636234        2691.0823771783     SG+        A1 (1)
  189   184         103.2960831459        2810.8293222000      PH        B2 (3)
  190   132         103.2960831459        2810.8293222001      PH        B1 (2)
  191   216         103.3632694603        2812.6575547608      DE        A2 (4)
  192    74         103.3632694603        2812.6575547619      DE        A1 (1)
  193   133         103.4231025518        2814.2856959543      PI        B1 (2)
  194   185         103.4231025518        2814.2856959543      PI        B2 (3)
  195    75         103.5203820580        2816.9328058950     SG+        A1 (1)
  196   217         115.3149171436        3137.8784221337      DE        A2 (4)
  197    76         115.3149171436        3137.8784221337      DE        A1 (1)
  198   186         115.7354366632        3149.3213400087      PI        B2 (3)
  199   134         115.7354366632        3149.3213400087      PI        B1 (2)
  200    77         116.2509864516        3163.3501629634     SG+        A1 (1)
  201   187         117.1584385221        3188.0431891697      PI        B2 (3)
  202   135         117.1584385221        3188.0431891703      PI        B1 (2)
  203    78         118.9141592480        3235.8187789855     SG+        A1 (1)
  204    79         123.2944656374        3355.0129755586     SG+        A1 (1)
  205   218         198.6265107295        5404.9021368653      DE        A2 (4)
  206    80         198.6265107295        5404.9021368653      DE        A1 (1)
  207   188         199.1301209552        5418.6060678000      PI        B2 (3)
  208   136         199.1301209552        5418.6060678002      PI        B1 (2)
  209    81         199.5011104713        5428.7012057603     SG+        A1 (1)
  210    82         217.1415251846        5908.7212938600     SG+        A1 (1)
  211   137         225.4606024904        6135.0948959610      PI        B1 (2)
  212   189         225.4606024904        6135.0948959612      PI        B2 (3)
  213    83         226.4922511068        6163.1674819952     SG+        A1 (1)
  214   190         395.5935497610       10764.6477531136      PI        B2 (3)
  215   138         395.5935497610       10764.6477531145      PI        B1 (2)
  216    84         396.8736230785       10799.4803189367     SG+        A1 (1)
  217    85         509.7301825576       13870.4634281256     SG+        A1 (1)
  218    86         895.9956128663       24381.2801464236     SG+        A1 (1)


  VSCF finished.

 @CHECKOUT-I, Total execution time (CPU/WALL):       45.58/       9.99 seconds.
--executable xvscf finished with status     0 in       10.03 seconds (walltime).
 --invoking executable--
/nfs/workspaces/public/cfour_mpi/bin/xvtran
 @GETMEM-I,  Allocated    3814 MB of main memory.
  Full RHF integral transformation
  Transformation of IIII integrals :
  1 pass through the AO integral file was required.
     4668025 AO integrals were read.
     8879810 MO integrals were written to HF2.
  Transformation of IIJJ integrals :
  1 pass through the AO integral file was required.
    10534210 AO integrals were read.
    14690796 MO integrals were written to HF2.
  Transformation of IJIJ integrals :
  1 pass through the AO integral file was required.
    19975200 AO integrals were read.
    27731946 MO integrals were written to HF2.
  Transformation of IJKL integrals :
  1 pass through the AO integral file was required.
    14757730 AO integrals were read.
    18710653 MO integrals were written to HF2.
  Summary of active molecular orbitals: 
------------------------------------------------------------------------
 
  Index      Eigenvalue    Symmetry    Index      Eigenvalue    Symmetry
------------------------------------------------------------------------
     1       -20.6558624        1       110         4.2114595        2
     2       -11.2983863        1       111         4.4455906        2
     3        -1.6179141        1       112         4.8487351        2
     4        -0.8164376        1       113         5.3016489        2
     5        -0.5360158        1       114         5.9639107        2
     6        -0.7065119        2       115         6.2768997        2
     7        -0.7065119        3       116         6.3811415        2
     8         0.0581159        1       117         6.4929246        2
     9         0.0756114        1       118         7.8459697        2
    10         0.1565272        1       119         8.8792297        2
    11         0.2271192        1       120        10.1530122        2
    12         0.2273422        1       121        11.0046032        2
    13         0.3019225        1       122        11.4379344        2
    14         0.3964929        1       123        11.8656544        2
    15         0.5081160        1       124        13.0493012        2
    16         0.5244273        1       125        14.9591855        2
    17         0.6620717        1       126        19.6344897        2
    18         0.7703788        1       127        27.5676075        2
    19         0.7891303        1       128        33.9263592        2
    20         0.8771928        1       129        48.1019325        2
    21         0.9022469        1       130        67.0654861        2
    22         0.9555139        1       131        98.7479154        2
    23         1.3183942        1       132        98.8588907        2
    24         1.5004023        1       133       103.2960831        2
    25         1.5469064        1       134       103.4231026        2
    26         1.6547436        1       135       115.7354367        2
    27         1.7552136        1       136       117.1584385        2
    28         1.7764368        1       137       199.1301210        2
    29         2.1134472        1       138       225.4606025        2
    30         2.2131521        1       139       395.5935498        2
    31         2.2273381        1       140         0.0644357        3
    32         2.3369784        1       141         0.1550061        3
    33         2.3840341        1       142         0.1905081        3
    34         2.5660529        1       143         0.3372581        3
    35         3.1170057        1       144         0.4021771        3
    36         3.1195208        1       145         0.6188835        3
    37         3.3983038        1       146         0.7500423        3
    38         3.7574970        1       147         0.8407016        3
    39         3.9902181        1       148         0.8723453        3
    40         4.1796381        1       149         1.1124639        3
    41         4.3240918        1       150         1.4567287        3
    42         4.4422365        1       151         1.5321299        3
    43         4.6865408        1       152         1.8702018        3
    44         5.0343078        1       153         1.9677943        3
    45         5.1995904        1       154         2.2615028        3
    46         5.9217481        1       155         2.3495751        3
    47         6.1707090        1       156         2.4150645        3
    48         6.2866421        1       157         2.6110239        3
    49         6.3343609        1       158         2.9835043        3
    50         6.7080119        1       159         3.7570437        3
    51         7.1373519        1       160         4.0676635        3
    52         7.9270490        1       161         4.2114595        3
    53         8.3160179        1       162         4.4455906        3
    54         8.7622540        1       163         4.8487351        3
    55         9.9164372        1       164         5.3016489        3
    56        10.6029120        1       165         5.9639107        3
    57        11.2989572        1       166         6.2768997        3
    58        11.3381921        1       167         6.3811415        3
    59        12.4297902        1       168         6.4929246        3
    60        12.5495524        1       169         7.8459697        3
    61        13.0513374        1       170         8.8792297        3
    62        13.9762985        1       171        10.1530122        3
    63        15.7264123        1       172        11.0046032        3
    64        18.6371068        1       173        11.4379344        3
    65        21.3406295        1       174        11.8656544        3
    66        26.7046283        1       175        13.0493012        3
    67        28.8250691        1       176        14.9591855        3
    68        35.7824032        1       177        19.6344897        3
    69        37.4095800        1       178        27.5676075        3
    70        47.1877251        1       179        33.9263592        3
    71        48.7769412        1       180        48.1019325        3
    72        64.7199468        1       181        67.0654861        3
    73        68.3406861        1       182        98.7479154        3
    74        98.7895946        1       183        98.8588907        3
    75        98.8954636        1       184       103.2960831        3
    76       103.3632695        1       185       103.4231026        3
    77       103.5203821        1       186       115.7354367        3
    78       115.3149171        1       187       117.1584385        3
    79       116.2509865        1       188       199.1301210        3
    80       118.9141592        1       189       225.4606025        3
    81       123.2944656        1       190       395.5935498        3
    82       198.6265107        1       191         0.2273422        4
    83       199.5011105        1       192         0.5244273        4
    84       217.1415252        1       193         0.7703788        4
    85       226.4922511        1       194         0.9022469        4
    86       396.8736231        1       195         1.5004023        4
    87       509.7301826        1       196         1.7764368        4
    88       895.9956129        1       197         2.1134472        4
    89         0.0644357        2       198         2.2273381        4
    90         0.1550061        2       199         2.3840341        4
    91         0.1905081        2       200         3.1170057        4
    92         0.3372581        2       201         3.7574970        4
    93         0.4021771        2       202         4.1796381        4
    94         0.6188835        2       203         4.4422365        4
    95         0.7500423        2       204         5.1995904        4
    96         0.8407016        2       205         5.9217481        4
    97         0.8723453        2       206         6.3343609        4
    98         1.1124639        2       207         6.7080119        4
    99         1.4567287        2       208         7.9270490        4
   100         1.5321299        2       209        10.6029120        4
   101         1.8702018        2       210        11.2989572        4
   102         1.9677943        2       211        12.4297902        4
   103         2.2615028        2       212        13.0513374        4
   104         2.3495751        2       213        26.7046283        4
   105         2.4150645        2       214        47.1877251        4
   106         2.6110239        2       215        98.7895946        4
   107         2.9835043        2       216       103.3632695        4
   108         3.7570437        2       217       115.3149171        4
   109         4.0676635        2       218       198.6265107        4
------------------------------------------------------------------------
  -20.6558623880898       -11.2983863487816       -1.61791408437406     
 -0.816437613927926      -0.536015819470198      -0.706511905862034     
 -0.706511905862025       5.811590429316413E-002  7.561142312561951E-002
  0.156527187138056       0.227119160923652       0.227342164802094     
  0.301922508930342       0.396492872672585       0.508115952937483     
  0.524427328913443       0.662071748722575       0.770378834911015     
  0.789130331218832       0.877192830903141       0.902246888736460     
  0.955513934697605        1.31839417251085        1.50040225576701     
   1.54690641442988        1.65474357951030        1.75521356039848     
   1.77643683891759        2.11344717184364        2.21315214823325     
   2.22733811796250        2.33697844948593        2.38403414477384     
   2.56605294846224        3.11700571242352        3.11952081343137     
   3.39830380086882        3.75749700883714        3.99021814943977     
   4.17963807543015        4.32409177999531        4.44223645806391     
   4.68654083915479        5.03430782813900        5.19959038452210     
   5.92174813967524        6.17070900848718        6.28664206691307     
   6.33436087346754        6.70801194032006        7.13735186215940     
   7.92704900459997        8.31601790954420        8.76225403940769     
   9.91643719223337        10.6029120437559        11.2989572495210     
   11.3381920798122        12.4297902055923        12.5495523988669     
   13.0513373766442        13.9762984673506        15.7264123204120     
   18.6371068467738        21.3406294588257        26.7046282563761     
   28.8250690761071        35.7824031836530        37.4095799900229     
   47.1877250650101        48.7769412214461        64.7199467824146     
   68.3406860552646        98.7895945808357        98.8954636234453     
   103.363269460305        103.520382058012        115.314917143600     
   116.250986451626        118.914159247983        123.294465637444     
[...]
 Convergence information after     7 iterations: 
 Largest element of residual vector : -0.72249108E-04.
 Largest element of DIIS residual   : -0.31523951E-04.
 Convergence information after     8 iterations: 
 Largest element of residual vector : -0.19162494E-04.
 Largest element of DIIS residual   :  0.13179219E-04.
 Convergence information after     9 iterations: 
 Largest element of residual vector :  0.64451355E-05.
 Largest element of DIIS residual   :  0.31196683E-05.
 Convergence information after    10 iterations: 
 Largest element of residual vector :  0.25114915E-05.
 Largest element of DIIS residual   :  0.14660736E-05.
 Convergence information after    11 iterations: 
 Largest element of residual vector :  0.74507649E-06.
 Largest element of DIIS residual   :  0.39987947E-06.
 Convergence information after    12 iterations: 
 Largest element of residual vector :  0.30974376E-06.
 Largest element of DIIS residual   :  0.20186532E-06.
 Convergence information after    13 iterations: 
 Largest element of residual vector :  0.12942869E-06.
 Largest element of DIIS residual   :  0.10898615E-06.
 Convergence information after    14 iterations: 
 Largest element of residual vector :  0.76897092E-07.
 Largest element of DIIS residual   :  0.55982181E-07.
 Perturbed amplitude equations converged in    14 iterations.
  Dominant contributions to perturbed wavefunction:
    7    7  142   37   0.2618904186 ABAB
    7    7   37  142   0.2618904186 ABAB
    7    7  142   63   0.2121226979 ABAB
    7    7   63  142   0.2121226979 ABAB
    7    7  142   27   0.2021339268 ABAB
    7    7   27  142   0.2021339268 ABAB
    7    6   37   91   0.1789488913 ABAB
    6    7   91   37   0.1789488913 ABAB
    7    7  142   55   0.1711605772 ABAB
    7    7   55  142   0.1711605772 ABAB
    5    5  142   43   0.1695079650 ABAB
    5    5   43  142   0.1695079650 ABAB
    7    7  142   48   0.1605320639 ABAB
    7    7   48  142   0.1605320639 ABAB
    7    7  142   43   0.1570360568 ABAB
    7    7   43  142   0.1570360568 ABAB
    7    7  143   37   0.1539131798 ABAB
    7    7   37  143   0.1539131798 ABAB
    7    6   63   91   0.1438338957 ABAB
    6    7   91   63   0.1438338957 ABAB
  norm of converged amps    2.83700390873855     
 Starting iterative solution of the perturbed Lambda equations.
 The DIIS procedure is used to accelerate convergence.
 Convergence criterion is 10**(-7).
 Maximum number of iterations is 100.
 Convergence information after     1 iterations: 
 Largest element of residual vector : -0.61746787E-01.
 Largest element of DIIS residual   : -0.61746787E-01.
 Convergence information after     2 iterations: 
 Largest element of residual vector :  0.59067232E-02.
 Largest element of DIIS residual   :  0.60675643E-02.
 Convergence information after     3 iterations: 
 Largest element of residual vector : -0.37316845E-02.
 Largest element of DIIS residual   : -0.33268367E-02.
 Convergence information after     4 iterations: 
 Largest element of residual vector : -0.23251938E-02.
 Largest element of DIIS residual   : -0.17522982E-02.
 Convergence information after     5 iterations: 
 Largest element of residual vector : -0.12362720E-02.
 Largest element of DIIS residual   : -0.55284927E-03.
 Convergence information after     6 iterations: 
 Largest element of residual vector : -0.38210751E-03.
 Largest element of DIIS residual   : -0.92070133E-04.
 Convergence information after     7 iterations: 
 Largest element of residual vector : -0.63722177E-04.
 Largest element of DIIS residual   : -0.27562699E-04.
 Convergence information after     8 iterations: 
 Largest element of residual vector : -0.15268476E-04.
 Largest element of DIIS residual   :  0.11356378E-04.
 Convergence information after     9 iterations: 
 Largest element of residual vector :  0.56484013E-05.
 Largest element of DIIS residual   :  0.27165575E-05.
 Convergence information after    10 iterations: 
 Largest element of residual vector :  0.21649543E-05.
 Largest element of DIIS residual   :  0.12875129E-05.
 Convergence information after    11 iterations: 
 Largest element of residual vector :  0.66818461E-06.
 Largest element of DIIS residual   :  0.37835206E-06.
 Convergence information after    12 iterations: 
 Largest element of residual vector :  0.28482606E-06.
 Largest element of DIIS residual   :  0.18673699E-06.
 Convergence information after    13 iterations: 
 Largest element of residual vector :  0.12037381E-06.
 Largest element of DIIS residual   :  0.98949955E-07.
 Perturbed Lambda equations converged in    13 iterations.
  Dominant contributions to perturbed wavefunction:
    7    7  142   37   0.2516715769 ABAB
    7    7   37  142   0.2516715769 ABAB
    7    7  142   63   0.2035869610 ABAB
    7    7   63  142   0.2035869610 ABAB
    7    7  142   27   0.1935400634 ABAB
    7    7   27  142   0.1935400634 ABAB
    7    6   37   91   0.1702048383 ABAB
    6    7   91   37   0.1702048383 ABAB
    7    7  142   55   0.1635174048 ABAB
    7    7   55  142   0.1635174048 ABAB
    5    5  142   43   0.1626396086 ABAB
    5    5   43  142   0.1626396086 ABAB
    7    7  142   48   0.1541820267 ABAB
    7    7   48  142   0.1541820267 ABAB
    7    7  142   43   0.1492558999 ABAB
    7    7   43  142   0.1492558999 ABAB
    7    7  143   37   0.1485897663 ABAB
    7    7   37  143   0.1485897663 ABAB
    5    5  142   54   0.1379808763 ABAB
    5    5   54  142   0.1379808763 ABAB
        The DBOC first-order density matrix is being calculated 
             (Symmetry block 3, perturbation   2)
 term   9.60210425311163     
 final tnorm  0.903102595025654     
  norm contr. I: |<0|L dT/dx|0>|^2   0.000000000000000E+000
  norm contr. II: <0|[nabla(1+L)e-T][nabla e^T]|0>   9.60210425311163     
  total norm contribution   9.60210425311163     
 oo  1.212494110229687E-002
 vv  -64.1017878716650     
 vo  1.685843971000873E-002
  Correlated perturbed 1-el contribution to DBOC  -64.0728044908527       cm**-1
  SUM_I |dc_I/dx|^2 contribution to DBOC   32.1228676748818       cm**-1
 
 
  The total diagonal Born-Oppenheimer correction (DBOC) is:      0.0038836710 a.u.
  The total diagonal Born-Oppenheimer correction (DBOC) is:        852.367263 cm-1
 
 Total CC energy including DBOC  -113.229114302978     
 First-order density matrix is being calculated  (Symmetry block 3, perturbation   2)
 Calculation of the contributions of <pq||rs> to dI(i,j)/dx required   3.2 seconds.
 Calculation of the contributions of <pq||rs> to dI(a,b)/dx required  16.1 seconds.
 Calculation of the contributions of <pq||rs> to dI(i,a)/dx required   9.5 seconds.
 First-order Z-vector equations are solved for 1 perturbation.
 Convergence reached after  17 iterations.
        U*G(pq,rs) contribution is being calculated
             (Symmetry block 3, perturbation   2)

 CCSD contribution to force constants 

        0.0000000000        0.0000000000        0.0000000000
        0.0000000000        0.0000000000        0.0000000000
        0.0000000000        0.0000000000        0.0000000000
        0.0000000000        0.0000000000        0.0000000000
        0.0000000000        0.0000000000        0.0000000000
        0.0000000000        0.0000000000        0.0000000000
        0.0000000000        0.0000000000        0.0000000000
        0.0000000000        0.0000000000        0.0000000000
        0.0000000000        0.0000000000        0.0000000000
        0.0000000000        0.0000000000        0.0000000000
        0.0000000000        0.0000000000        0.0000000000
        0.0000000000      -11.3311077595       11.3311077595

 CCSD contribution to dipole derivatives 

        0.0000000000        0.0000000000        0.0000000000
        0.0000000000        0.0000000000        0.0000000000
        0.0000000000        0.0000000000        0.0000000000
        0.0000000000        0.0000000000       -0.0386084167
        0.0000000000        0.0000000000        0.0000000000
        0.0000000000        0.0000000000        0.0000000000
 @CHECKOUT-I, Total execution time (CPU/WALL):     1162.12/     497.59 seconds.
--executable xsdcc finished with status     0 in      497.81 seconds (walltime).
 --invoking executable--
/nfs/workspaces/public/cfour_mpi/bin/xanti
 @GETMEM-I,  Allocated    3814 MB of main memory.
 CCSD MO derivative gammas will be sorted to Mulliken order.
 @CHECKOUT-I, Total execution time (CPU/WALL):       13.06/      24.93 seconds.
--executable xanti finished with status     0 in       25.07 seconds (walltime).
 --invoking executable--
/nfs/workspaces/public/cfour_mpi/bin/xbcktrn
 @GETMEM-I,  Allocated    3814 MB of main memory.
 CCSD MO derivative gammas will be transformed to the AO basis.
 @CHECKOUT-I, Total execution time (CPU/WALL):       33.36/      15.52 seconds.
--executable xbcktrn finished with status     0 in       15.58 seconds (walltime).
 --invoking executable--
/nfs/workspaces/public/cfour_mpi/bin/xvdint
 @GETMEM-I,  Allocated    3814 MB of main memory.
 One- and two-electron integral derivatives are calculated
 for RHF-CC/MBPT hessians and dipole derivatives.
 Spherical gaussians are used.
  magnet F F
                    8722  records have been written to the Sort file.
  Total length of Sort file :             178609116  words.
 Evaluation of 2el integral derivatives

                      Two-electron integral gradient
                      ------------------------------

                         C #1 z     0.0000000000
                         O #2 z     0.0000000000


 C #1       0.0000000000           -1.4574646490            0.0000000000
 O #2       0.0000000000            1.4574646490            0.0000000000


 Evaluation of 2e integral derivatives required  355.53 seconds.
  contribution to Hessian
        0.0000000000        0.0000000000        0.0000000000
        0.0000000000       -1.4574646490        1.4574646490
 @CHECKOUT-I, Total execution time (CPU/WALL):      355.51/      74.25 seconds.
--executable xvdint finished with status     0 in       74.45 seconds (walltime).
 --invoking executable--
/nfs/workspaces/public/cfour_mpi/bin/xanti
 @GETMEM-I,  Allocated    3814 MB of main memory.
 CCSD MO gammas will be sorted to Mulliken order.
 @CHECKOUT-I, Total execution time (CPU/WALL):       17.34/      55.86 seconds.
--executable xanti finished with status     0 in       56.01 seconds (walltime).
 --invoking executable--
/nfs/workspaces/public/cfour_mpi/bin/xbcktrn
 @GETMEM-I,  Allocated    3814 MB of main memory.
 CCSD MO gammas will be transformed to the AO basis.
 @CHECKOUT-I, Total execution time (CPU/WALL):       48.34/       9.48 seconds.
--executable xbcktrn finished with status     0 in        9.55 seconds (walltime).
 --invoking executable--
/nfs/workspaces/public/cfour_mpi/bin/xvdint
 @GETMEM-I,  Allocated    3814 MB of main memory.
 One- and two-electron integral derivatives are calculated
 for RHF-CC/MBPT hessians and dipole derivatives.
 Spherical gaussians are used.
  magnet F F

                     Kinetic energy integral gradient
                     --------------------------------

                         C #1 z    -1.9014848954
                         O #2 z     1.9014848954


 C #1       0.0000000000            0.0000000000           -1.9014848954
 O #2       0.0000000000            0.0000000000            1.9014848954



                   Nuclear attraction integral gradient
                   ------------------------------------

                         C #1 z    27.1793559222
                         O #2 z   -27.1793559222


 C #1       0.0000000000            0.0000000000           27.1793559222
 O #2       0.0000000000            0.0000000000          -27.1793559222



                      Reorthonormalization gradient
                      -----------------------------

                         C #1 z     0.0000000000
                         O #2 z     0.0000000000


 C #1       0.0000000000            0.0000000000            0.0000000000
 O #2       0.0000000000            0.0000000000            0.0000000000



                     Kinetic energy integral Hessian
                     -------------------------------


           Symmetry 1

           C #1 z      O #2 z

 C #1 z    0.730208
 O #2 z   -0.730208    0.730208


           Symmetry 2

           C #1 x      O #2 x

 C #1 x   -3.246591
 O #2 x    3.246591   -3.246591


           Symmetry 3

           C #1 y      O #2 y

 C #1 y   -3.246591
 O #2 y    3.246591   -3.246591




           C #1 x      C #1 y      C #1 z      O #2 x      O #2 y      O #2 z

 C #1 x   -3.246591
 C #1 y    0.000000   -3.246591
 C #1 z    0.000000    0.000000    0.730208

 O #2 x    3.246591    0.000000    0.000000   -3.246591
 O #2 y    0.000000    3.246591    0.000000    0.000000   -3.246591
 O #2 z    0.000000    0.000000   -0.730208    0.000000    0.000000    0.730208




                   Nuclear attraction integral Hessian
                   -----------------------------------


           Symmetry 1

           C #1 z      O #2 z

 C #1 z  -12.871935
 O #2 z   12.871935  -12.871935


           Symmetry 2

           C #1 x      O #2 x

 C #1 x   29.819976
 O #2 x  -29.819976   29.819976


           Symmetry 3

           C #1 y      O #2 y

 C #1 y   29.819976
 O #2 y  -29.819976   29.819976




           C #1 x      C #1 y      C #1 z      O #2 x      O #2 y      O #2 z

 C #1 x   29.819976
 C #1 y    0.000000   29.819976
 C #1 z    0.000000    0.000000  -12.871935

 O #2 x  -29.819976    0.000000    0.000000   29.819976
 O #2 y    0.000000  -29.819976    0.000000    0.000000   29.819976
 O #2 z    0.000000    0.000000   12.871935    0.000000    0.000000  -12.871935




                Highest order reorthonormalization Hessian
                ------------------------------------------


           Symmetry 1

           C #1 z      O #2 z

 C #1 z    0.000000
 O #2 z    0.000000    0.000000


           Symmetry 2

           C #1 x      O #2 x

 C #1 x    0.000000
 O #2 x    0.000000    0.000000


           Symmetry 3

           C #1 y      O #2 y

 C #1 y    0.000000
 O #2 y    0.000000    0.000000




           C #1 x      C #1 y      C #1 z      O #2 x      O #2 y      O #2 z




                Electronic contributions to dipole moment
                -----------------------------------------

                               au             Debye

                    z     -0.97372994     -2.47497506

  Conversion factor used: 1 a.u. =   2.54174691 Debye 



   Electronic contributions to static part of dipole moment derivatives
   --------------------------------------------------------------------


                     Total dipole moment derivatives
                     -------------------------------


           Symmetry 1
                              Ez

               C #1 z    -5.80066557
               O #2 z    -8.19933443

           Symmetry 2
                              Ex

               C #1 x    -5.88101124
               O #2 x    -8.11898876

           Symmetry 3
                              Ey

               C #1 y    -5.88101124
               O #2 y    -8.11898876



                       Ex          Ey          Ez

      C #1    x   -5.881011    0.000000    0.000000
      C #1    y    0.000000   -5.881011    0.000000
      C #1    z    0.000000    0.000000   -5.800666

      O #2    x   -8.118989    0.000000    0.000000
      O #2    y    0.000000   -8.118989    0.000000
      O #2    z    0.000000    0.000000   -8.199334

 Evaluation of 1e integral derivatives required    1.59 seconds.
                    8815  records have been written to the Sort file.
  Total length of Sort file :             180513570  words.
 Evaluation of 2el integral derivatives

                      Two-electron integral gradient
                      ------------------------------

                         C #1 z   -11.8536278131
                         O #2 z    11.8536278131


 C #1       0.0000000000            0.0000000000          -11.8536278131
 O #2       0.0000000000            0.0000000000           11.8536278131


 Evaluation of 2e integral derivatives required  717.78 seconds.

                            Molecular gradient
                            ------------------

                         C #1 z    -0.2044539542
                         O #2 z     0.2044539542


 C #1       0.0000000000            0.0000000000           -0.2044539542
 O #2       0.0000000000            0.0000000000            0.2044539542


  Molecular gradient norm 0.289E+00

                            Molecular hessian
                            -----------------


           Symmetry 1

           C #1 z      O #2 z

 C #1 z   94.441711
 O #2 z  -94.441711   94.441711


           Symmetry 2

           C #1 x      O #2 x

 C #1 x   12.156705
 O #2 x  -12.156705   12.156705


           Symmetry 3

           C #1 y      O #2 y

 C #1 y   12.156705
 O #2 y  -12.156705   12.156705




           C #1 x      C #1 y      C #1 z      O #2 x      O #2 y      O #2 z

 C #1 x   12.156705
 C #1 y    0.000000   12.156705
 C #1 z    0.000000    0.000000   94.441711

 O #2 x  -12.156705    0.000000    0.000000   12.156705
 O #2 y    0.000000  -12.156705    0.000000    0.000000   12.156705
 O #2 z    0.000000    0.000000  -94.441711    0.000000    0.000000   94.441711




                           Total dipole moment
                           -------------------

                               au             Debye

                    z     -0.22334653     -0.56769036

  Conversion factor used: 1 a.u. =   2.54174691 Debye 



                     Total dipole moment derivatives
                     -------------------------------


           Symmetry 1
                              Ez

               C #1 z     0.66933371
               O #2 z    -0.66933371

           Symmetry 2
                              Ex

               C #1 x    -0.12003327
               O #2 x     0.12003327

           Symmetry 3
                              Ey

               C #1 y    -0.12003327
               O #2 y     0.12003327



                       Ex          Ey          Ez

      C #1    x   -0.120033    0.000000    0.000000
      C #1    y    0.000000   -0.120033    0.000000
      C #1    z    0.000000    0.000000    0.669334

      O #2    x    0.120033    0.000000    0.000000
      O #2    y    0.000000    0.120033    0.000000
      O #2    z    0.000000    0.000000   -0.669334

 @CHECKOUT-I, Total execution time (CPU/WALL):      719.36/     121.01 seconds.
--executable xvdint finished with status     0 in      121.20 seconds (walltime).
 --invoking executable--
/nfs/workspaces/public/cfour_mpi/bin/xjoda
  @GTFLGS-I, Hessian will be transformed to curvilinear coordinates.
  @GTFLGS-I, Hessian will be transformed to curvilinear coordinates.
  igrd and ihes are                      0                     1
  gradient from JOBARC 
   0.000000000000000   0.000000000000000  -0.204453954162197
   0.000000000000000   0.000000000000000   0.204453954162197
 
  @PROJFCM-I, Projecting force constant matrix onto totally symmetric subspace.
  Largest difference between matrix elements of symmetrized
  and unsymmetrized FCM :     0.2462385851E-10.
  read isotopes from ZMAT file 
 
  Summary of diagonal Born-Oppenheimer correction at the correlated level
  The total diagonal Born-Oppenheimer correction (DBOC) is:      0.0038836710 a.u.
  The total diagonal Born-Oppenheimer correction (DBOC) is:        852.367263 cm-1
  The total diagonal Born-Oppenheimer correction (DBOC) is:            10.197 kJ/mole
  hellooooooo 
  readis is  F
 
 @CHECKOUT-I, Total execution time (CPU/WALL):        0.01/       0.07 seconds.
--executable xjoda finished with status     0 in        0.13 seconds (walltime).
  The final electronic energy is      -113.229114302978033 a.u. 
  This computation required                         4433.92 seconds (walltime).
