 --invoking executable--
/nfs/workspaces/public/cfour_mpi/bin/xjoda


   *************************************************************************
         <<<     CCCCCC     CCCCCC   |||     CCCCCC     CCCCCC   >>>
       <<<      CCC        CCC       |||    CCC        CCC         >>>
      <<<      CCC        CCC        |||   CCC        CCC            >>>
    <<<        CCC        CCC        |||   CCC        CCC              >>>
      <<<      CCC        CCC        |||   CCC        CCC            >>>
       <<<      CCC        CCC       |||    CCC        CCC         >>>
         <<<     CCCCCC     CCCCCC   |||     CCCCCC     CCCCCC   >>>
   *************************************************************************

     ****************************************************************
     * CFOUR Coupled-Cluster techniques for Computational Chemistry *
     ****************************************************************
 

   Department of Chemistry                Institut fuer Physikalische Chemie
   University of Florida                  Universitaet Mainz
   Gainesville, FL 32611, USA             D-55099 Mainz, Germany

   Department of Chemistry                Fakultaet fuer Chemie und Biowiss.
   Johns Hopkins University               Karlsruher Institut fuer Technologie
   Baltimore, MD 21218, USA               D-76131 Karlsruhe, Germany

   Department of Chemistry                Department of Physical Chemistry
   Southern Methodist University          Eotvos Lorand University
   Dallas, TX 75275, USA                  H-1053 Budapest, Hungary

 
                       Version 2.1
 
                     vincent.theory.phys.ucl.ac.uk                     
                     Mon  3 Mar 02:06:44 GMT 2025                      
                     integer*8 version is running
 
********************************************************************************
*                          Input from ZMAT file                                *
********************************************************************************
Carbon Monoxide DBOC calculation                                                
C                                                                               
O 1 r                                                                           
                                                                                
r=1.4896551724137932                                                            
                                                                                
                                                                                
*CFOUR(CALC=CCSD,BASIS=AUG-PCVQZ,SCF_CONV=10                                    
CC_CONV=14,DBOC=ON,MEMORY=500000000                                             
ZFIELD=-200)                                                                    
                                                                                
%isotopes                                                                       
12                                                                              
18                                                                              
********************************************************************************
  @GTFLGS-I, Hessian will be transformed to curvilinear coordinates.
    -------------------------------------------------------------------
                    CFOUR Control Parameters 
    -------------------------------------------------------------------
        External           Internal           Value            Units
          Name               Name
    -------------------------------------------------------------------
       ABCDTYPE             IABCDT         STANDARD    [  0]    ***   
       ANHARMONIC           IANHAR         OFF         [  0]    ***   
       ANH_ALGORIT          IANALG         STANDARD    [  0]    ***   
       ANH_DERIVAT          IANDER         SECOND      [  1]    ***   
       ANH_MODE             ANHMOD         VIBRATION   [  0]    ***   
       ANH_STEPSIZ          ICUBST             50000          x 10-6  
       ANH_SYMMETR          IANHSM         ABELIAN     [  0]    ***   
       AO_LADDERS           IAOLAD         SINGLEPASS  [  1]    ***   
       AV_SCF               IAVSCF         OFF         [  0]    ***   
       BASIS                IBASIS         AUG-PCVQZ   [ 52]    ***   
       BOTHVECTORS          BOTHVC         OFF         [  0]    ***   
       BOX_POTENT           IPIAB          OFF         [  0]    ***   
       BREIT                IBREIT         OFF         [  0]    ***   
       BRUCK_CONV           IBRTOL          10D-  4             ***   
       BRUECKNER            IBRKNR         OFF         [  0]    ***   
       BUFFERSIZE           IBUFFS              4096            ***   
       CACHE_RECS           ICHREC             10               ***   
       CALCLEVEL            ICLLVL         CCSD        [ 10]    ***   
       CCORBOPT             ICCORB         OFF         [  0]  x 0.01  
       CC_CONV              ICCCNV          10D- 14             ***   
       CC_EXPORDER          ICCEOR              5               ***   
       CC_EXTRAPOL          ICCEXT         DIIS        [  1]    ***   
       CC_GUESS             ICCGES         MP2         [  0]    ***   
       CC_MAXCYC            ICCCYC            100              cycles 
       CC_PROGRAM           ICCPRO         VCC         [  0]    ***   
       CHARGE               ICHRGE              0               ***   
       CHOLESKY             ICHOLE         OFF         [  0]    ***   
       CIS_CONV             ICISTL              5               ***   
       COMM_SIZE            IPSIZE            ***               ***   
       CONSTANT             ICONST         OLD         [  1]    ***   
       CONTINUUM            ICONTU         NONE        [  0]    ***   
       CONTRACTION          ICNTYP         GENERAL     [  1]    ***   
       COORDINATES          ICOORD         INTERNAL    [  0]    ***   
       CPHF_CONVER          ICPHFT          10D- 16             ***   
       CPHF_MAXCYC          ICPHFC             64              cycles 
       CUBIC                ICUBIC         OFF         [  0]    ***   
       CURVILINEAR          ICURVY         ON          [  1]    ***   
       DBOC                 IDBOC          ON          [  1]    ***   
       DCT                  IDCT           OFF         [  0]    ***   
       DERIV_LEV            IDRLVL         SECOND      [  2]    ***   
       DEVMEM_SIZE          IDVMEM          50000000           MByte  
       DIAG_MRCC            IEOMST          10D-  0             ***   
       DIFF_TYPE            IDIFTY         RELAXED     [  0]    ***   
       DIRECT               IDIRCT         OFF         [  0]    ***   
       DROPMO               IDRPMO      NONE         
       ECP                  IECP           OFF         [  0]    ***   
       EIGENVECTOR          IVEC                1               ***   
       EL_ANHARM            IELANH         OFF         [  0]    ***   
       EOMFOLLOW            IEOMSR         ENERGY      [  0]    ***   
       EOMIP                IEOMIP         OFF         [  0]    ***   
       EOMLEVEL             HBARFM         SAME        [  0]    ***   
       EOM_MRCC             IMRCCE         NEW         [  1]    ***   
       EOM_NONIT            EOMNON         OFF         [  0]    ***   
       EOM_NSING            IEOMSI          10D-  0             ***   
       EOM_NSTATES          IMRCCD         DAVIDSON    [  0]    ***   
       EOM_NTRIP            IEOMTR          10D-  0             ***   
       EOM_ORDER            IEXORD         ENERGY      [  0]    ***   
       EOM_PROPSTA          IEOMST              0               ***   
       ESTATE_CONV          IEXTOL          10D-  5             ***   
       ESTATE_DIAG          IEXDIG         ITERATIVE   [  0]    ***   
       ESTATE_LOCK          IESLOC         ON          [  1]    ***   
       ESTATE_MAXC          IEXMXC             40               ***   
       ESTATE_PROP          IEXPRP         OFF         [  0]    ***   
       EVAL_HESS            IRECAL              0            # of cyc.
       EXCITATION           IEXCIT              0               ***   
       EXCITE               IEXCIT         NONE        [  0]    ***   
       EXTERN_POT           IEXPOT         OFF         [  0]    ***   
       FCGRADNEW            IFCGNW         OFF         [  0]    ***   
       FC_FIELD             IFINFC              0             x 10-6  
       FD_CALTYPE           IFDCAL         GRADONLY    [  0]    ***   
       FD_PROJECT           IFDPRJ         OFF         [  1]    ***   
       FD_STEPSIZE          IDISFD              0            10-4 bohr
       FD_USEGROUP          IFDGRP         FULL        [  0]    ***   
       FILE_RECSIZ          IFLREC              4096           words  
       FINITE_PERT          IFIPER              0             x 10-6  
       FIXGEOM              IFIXGM         OFF         [  0]    ***   
       FOCK                 IFOCK          AO          [  1]    ***   
       FREQ_ALGORI          IVIALG         STANDARD    [  0]    ***   
       FROZEN_CORE          IFROCO         OFF         [  0]    ***   
       GAMMA_ABCD           IGABCD         STORE       [  0]    ***   
       GAMMA_ABCI           IGABCI         STORE       [  0]    ***   
       GENBAS_1             IGNBS1              0               ***   
       GENBAS_2             IGNBS2              0               ***   
       GENBAS_3             IGNBS3              0               ***   
       GENBAS_4             IGNBS4              0               ***   
       GEO_CONV             ICONTL              5              H/bohr 
       GEO_MAXCYC           IOPTCY             50               ***   
       GEO_MAXSTEP          IMXSTP            300            millibohr
       GEO_METHOD           INR            SINGLE_POINT[  5]    ***   
       GIAO                 IGIAO          OFF         [  1]    ***   
       GIMIC                IGIMIC         OFF         [  0]    ***   
       GRID                 IGRID          OFF         [  0]    ***   
       GRID_ALGO            IGALGO         SERIAL      [  0]    ***   
       GUESS                IGUESS         MOREAD      [  0]    ***   
       HBAR                 IHBAR          OFF         [  0]    ***   
       HESS_TYPE            IHESTP         SCF         [  0]    ***   
       HF2_FILE             IHF2Fl         USE         [  1]    ***   
       HFSTABILITY          ISTABL         OFF         [  0]    ***   
       INCORE               INCORE         OFF         [  0]    ***   
       INPUT_MRCC           IMRCC          ON          [  1]    ***   
       INTEGRALS            INTTYP         VMOL        [  1]    ***   
       JODA_PRINT           IJPRNT              0               ***   
       KEYWORD_OUT          IDMPKW         NO          [  0]    ***   
       LINDEP_TOL           ILINDP              8               ***   
       LINEQ_CONV           IZTACN          10D-  7           cycles  
       LINEQ_EXPOR          ILMAXD              5               ***   
       LINEQ_MAXCY          ILMAXC            100               ***   
       LINEQ_TYPE           ILTYPE         DIIS        [  1]    ***   
       LOCK_ORBOCC          ILOCOC         OFF         [  0]    ***   
       MEMORY_SIZE          IMEMSZ         500000000           words  
       MEM_UNIT             IMEMU          INTEGERWORDS[  0]    ***   
       MRCC                 IMRCCC         OFF         [  0]    ***   
       MULTIPLICTY          IMULTP              1               ***   
       NACOUPLING           IVCOUP         OFF         [  0]    ***   
       NEGEVAL              IDIE           ABORT       [  0]    ***   
       NEWNORM              INEWNO         OFF         [  0]    ***   
       NON-HF               INONHF         OFF         [  0]    ***   
       NTOP_TAMP            ITOPT2             15               ***   
       NUC_MODEL            INUCMO         POINT       [  0]    ***   
       OCCUPATION           IOCCU   ESTIMATED BY SCF 
       OPEN-SHELL           IOPEN          SPIN-ORBITAL[  0]    ***   
       OPTVIB               IOPTVB         OFF         [  0]    ***   
       ORBITALS             IORBTP         STANDARD    [  0]    ***   
       PARALLEL             IPARAL         ON          [  1]    ***   
       PARA_INT             IPINTS         ON          [  1]    ***   
       PARA_PRINT           IPPRIN              0               ***   
       PERT_ORB             IPTORB         STANDARD    [  0]    ***   
       POINTS               IGRDFD              0               ***   
       PRINT                IPRNT               0               ***   
       PROPS                IPROPS         OFF         [  0]    ***   
       PROP_INTEGR          IINTYP         INTERNAL    [  0]    ***   
       PSI                  IPSI           OFF         [  0]    ***   
       QC_ALG               IQCALG         FLM         [  0]    ***   
       QC_LINALG            IQCLIN         TRIDIAG     [  2]    ***   
       QC_MAXCYC            IQCMAX          10D-100           cycles  
       QC_MAXSCFCY          IQCMSC          10D- 15           cycles  
       QC_RTRUST            IQCRTR          10D-  0           x 10-3  
       QC_SKIPSCF           IQCSKI         OFF         [  0]    ***   
       QC_START             IQCSTA          10D-  1             ***   
       QRHFGUESS            IQGUES         OFF         [  0]    ***   
       QUARTIC              IQUART         OFF         [  0]    ***   
       RAMAN_INT            IRAMIN         OFF         [  0]    ***   
       RAMAN_ORB            IRAMRE         UNRELAXED   [  0]    ***   
       RDO                  IRDOFM         ON          [  1]    ***   
       REDUCE_REPR          REDREP         Ir          [  0]    ***   
       REFERENCE            IREFNC         RHF         [  0]    ***   
       RELATIVIST           IRELAT         OFF         [  0]    ***   
       RELAX_DENS           IRDENS         ON          [  1]    ***   
       RESET_FLAGS          IRESET         OFF         [  0]    ***   
       RESTART_CC           ICCRES         OFF         [  0]    ***   
       ROT_EVEC             ROTVEC              0               ***   
       SAVE_INTS            ISVINT         OFF         [  0]    ***   
       SCALE_ON             ISTCRT              0               ***   
       SCF_CONV             ISCFCV          10D- 10             ***   
       SCF_DAMPING          IDAMP               0             x 10-3  
       SCF_EXPORDE          IRPPOR              6               ***   
       SCF_EXPSTAR          IRPPLS              8               ***   
       SCF_EXTRAPO          IRPP           ON          [  1]    ***   
       SCF_MAXCYC           ISCFCY            150              cycles 
       SCF_NOSTOP           ISCFST         OFF         [  0]    ***   
       SCF_PRINT            ISCFPR              0               ***   
       SCF_PROG             ISCFPR         SCF         [  0]    ***   
       SD_FIELD             IFINSD              0             x 10-6  
       SOPERT               IPERSO         OFF         [  0]    ***   
       SPHERICAL            IDFGHI         ON          [  1]    ***   
       SPINORBIT            ISOCAL         OFF         [  0]    ***   
       SPINROTATIO          ISRCON         OFF         [  0]    ***   
       SPIN_FLIP            ISPFLP         OFF         [  0]    ***   
       SPIN_ORBIT           ISPORB         OFF         [  0]    ***   
       SPIN_SCAL            ISCSMP         OFF         [  0]    ***   
       STEEPSCALE           ISTPSC              1000          x 10-3  
       SUBGROUP             ISUBGP         DEFAULT     [  0]    ***   
       SUBGRPAXIS           ISBXYZ         X           [  0]    ***   
       SYMMETRY             ISYM           ON          [  0]    ***   
       SYM_CHECK            ISYMCK         OVERRIDE    [  1]    ***   
       T3_EXTRAPOL          IT3EXT         OFF         [  0]    ***   
       T4_EXTRAPOL          IT4EXP         OFF         [  0]    ***   
       TAMP_SUM             IEVERY              5               ***   
       TESTSUITE            ITESTS         OFF         [  0]    ***   
       THERMOCH             ITHERM         OFF         [  0]    ***   
       TOL_CHOLESK          ITOLCH          10D-  4             ***   
       TRANGRAD             IRESRM         OFF         [  0]    ***   
       TRANS_INV            ITRAIN         IGNORE      [  1]    ***   
       TREAT_PERT           ITREAT         SIMULTANEOUS[  0]    ***   
       TRIP_ALGORI          ITRALG         NORMAL      [  0]    ***   
       UIJ_THRESHO          IUIJTH              1               ***   
       UNITS                IUNITS         ANGSTROM    [  0]    ***   
       UNOS                 IUNOS          OFF         [  0]    ***   
       UPDATE_HESS          IHUPDT         ON          [  1]    ***   
       VIBPHASE             ISETPH         STANDARD    [  0]    ***   
       VIBRATION            IVIB           ANALYTIC    [  1]    ***   
       VIB_ALGORIT          IGEALG         STANDARD    [  0]    ***   
       VNATORB              IVNORB         OFF         [  0]    ***   
       VTRAN                IVTRAN         FULL/PARTIAL[  0]    ***   
       XFIELD               IXEFLD              0             x 10-6  
       XFORM_TOL            IXFTOL          10D- 11             ***   
       YFIELD               IYEFLD              0             x 10-6  
       ZFIELD               IZEFLD            ***             x 10-6  
       ZSCALE_EXP           IZEXPS         OFF         [  0]    ***   
    -------------------------------------------------------------------
   2 entries found in Z-matrix 
   Job Title : Carbon Monoxide DBOC calculation                                                
   There are  1 unique internal coordinates.
   Of these,  0 will be optimized.
   User supplied Z-matrix: 
--------------------------------------------------------------------------------
       SYMBOL    BOND      LENGTH    ANGLE     ANGLE     DIHED     ANGLE
                  TO      (ANGST)    WRT      (DEG)      WRT      (DEG)
--------------------------------------------------------------------------------
        C    
        O          1         r    
                  *Initial values for internal coordinates* 
                      Name             Value
                        r               1.4896551724
--------------------------------------------------------------------------------
  read isotopes from ZMAT file 
   Rotational constants (in cm-1): 
          1.0551171086             1.0551171086
   Rotational constants (in MHz): 
      31631.6195787492         31631.6195787492
********************************************************************************
   The full molecular point group is CXv .
   The largest Abelian subgroup of the full molecular point group is C2v .
   The computational point group is C2v .
********************************************************************************
--------------------------------------------------------------------------------
   Analysis of internal coordinates specified by Z-matrix 
--------------------------------------------------------------------------------
   *The nuclear repulsion energy is   17.051262111111111 a.u.
   *There is   1 degree of freedom within the tot. symm. molecular subspace.
   *Z-matrix requests optimization of   0 coordinates.
   *The optimization is constrained.
   *The following   1 parameters can have non-zero 
    derivatives within the totally symmetric subspace:
             r    [ 1]
   *The following   0 parameters are to be optimized:

   *The following coordinates must be varied in an  unconstrained optimization.
             r    [ 1]
--------------------------------------------------------------------------------


 ----------------------------------------------------------------
         Coordinates used in calculation (QCOMP) 
 ----------------------------------------------------------------
 Z-matrix   Atomic            Coordinates (in bohr)
  Symbol    Number           X              Y              Z
 ----------------------------------------------------------------
     C         6        -0.00000000     0.00000000     1.68899301
     O         8         0.00000000     0.00000000    -1.12604787
 ----------------------------------------------------------------
 
   Interatomic distance matrix (Angstroms) 
 
                 C             O    
                [ 1]        [ 2]
  C    [ 1]     0.00000
  O    [ 2]     1.48966     0.00000
 rotcon2
   Rotational constants (in cm-1): 
          1.0551171086             0.0000000000
   Rotational constants (in MHz): 
      31631.6195787492             0.0000000000
  ECPDATA file not present.   Using default ECPDATA. 
  @GTFLGS-I, Hessian will be transformed to curvilinear coordinates.
  There are  218 basis functions.
 @CHECKOUT-I, Total execution time (CPU/WALL):        0.13/       0.17 seconds.
--executable xjoda finished with status     0 in        0.20 seconds (walltime).
 --invoking executable--
/nfs/workspaces/public/cfour_mpi/bin/xvmol
 SERIAL VERSION OF MOLECULE STARTED
********************************************************************************
                    INPUT FROM MOL FILE
********************************************************************************
INTGRL        1    0    1    0    0    0    0    0    0                         
         *** CFOUR Program System (Release V0.1) ***                            
Carbon Monoxide DBOC calculation                                                
    2    2 X  Y       0.10E-08              0    0                              
   9999.00      3.00                                                            
          6.00000000    1    5    1    1    1    1    1                         
C #1  -0.000000000000000   0.000000000000000   1.688993013496106                
   16    9                                                                      
   33980.0000000000       9.100000000000000E-005 -1.900000000000000E-005        
  0.000000000000000E+000  0.000000000000000E+000  0.000000000000000E+000        
  0.000000000000000E+000  0.000000000000000E+000  0.000000000000000E+000        
  0.000000000000000E+000                                                        
   5089.00000000000       7.040000000000000E-004 -1.510000000000000E-004        
  0.000000000000000E+000  0.000000000000000E+000  0.000000000000000E+000        
  0.000000000000000E+000  0.000000000000000E+000  0.000000000000000E+000        
  0.000000000000000E+000                                                        
   1157.00000000000       3.693000000000000E-003 -7.850000000000000E-004        
  0.000000000000000E+000  0.000000000000000E+000  0.000000000000000E+000        
  0.000000000000000E+000  0.000000000000000E+000  0.000000000000000E+000        
  0.000000000000000E+000                                                        
   326.600000000000       1.536000000000000E-002 -3.324000000000000E-003        
  0.000000000000000E+000  0.000000000000000E+000  0.000000000000000E+000        
  0.000000000000000E+000  0.000000000000000E+000  0.000000000000000E+000        
  0.000000000000000E+000                                                        
   106.100000000000       5.292900000000000E-002 -1.151200000000000E-002        
  0.000000000000000E+000  0.000000000000000E+000  0.000000000000000E+000        
  0.000000000000000E+000  0.000000000000000E+000  0.000000000000000E+000        
  0.000000000000000E+000                                                        
   38.1100000000000       0.147043000000000      -3.416000000000000E-002        
  0.000000000000000E+000  0.000000000000000E+000  0.000000000000000E+000        
  0.000000000000000E+000  0.000000000000000E+000  0.000000000000000E+000        
  0.000000000000000E+000                                                        
   14.7500000000000       0.305631000000000      -7.717300000000001E-002        
  0.000000000000000E+000  0.000000000000000E+000  0.000000000000000E+000        
  0.000000000000000E+000  0.000000000000000E+000  0.000000000000000E+000        
  0.000000000000000E+000                                                        
   6.03500000000000       0.399345000000000      -0.141493000000000             
  0.000000000000000E+000  0.000000000000000E+000  0.000000000000000E+000        
  0.000000000000000E+000  0.000000000000000E+000  0.000000000000000E+000        
  0.000000000000000E+000                                                        
   2.53000000000000       0.217051000000000      -0.118019000000000             
  0.000000000000000E+000  0.000000000000000E+000  0.000000000000000E+000        
  0.000000000000000E+000  0.000000000000000E+000  0.000000000000000E+000        
  0.000000000000000E+000                                                        
  0.735500000000000       1.589400000000000E-002  0.273806000000000             
   1.00000000000000       0.000000000000000E+000  0.000000000000000E+000        
  0.000000000000000E+000  0.000000000000000E+000  0.000000000000000E+000        
  0.000000000000000E+000                                                        
  0.290500000000000      -3.084000000000000E-003  0.586510000000000             
  0.000000000000000E+000   1.00000000000000       0.000000000000000E+000        
  0.000000000000000E+000  0.000000000000000E+000  0.000000000000000E+000        
  0.000000000000000E+000                                                        
  0.111100000000000       9.779999999999999E-004  0.285430000000000             
  0.000000000000000E+000  0.000000000000000E+000   1.00000000000000             
  0.000000000000000E+000  0.000000000000000E+000  0.000000000000000E+000        
  0.000000000000000E+000                                                        
   7.21600000000000       0.000000000000000E+000  0.000000000000000E+000        
  0.000000000000000E+000  0.000000000000000E+000  0.000000000000000E+000        
   1.00000000000000       0.000000000000000E+000  0.000000000000000E+000        
  0.000000000000000E+000                                                        
   19.5700000000000       0.000000000000000E+000  0.000000000000000E+000        
  0.000000000000000E+000  0.000000000000000E+000  0.000000000000000E+000        
  0.000000000000000E+000   1.00000000000000       0.000000000000000E+000        
  0.000000000000000E+000                                                        
   53.0730000000000       0.000000000000000E+000  0.000000000000000E+000        
  0.000000000000000E+000  0.000000000000000E+000  0.000000000000000E+000        
  0.000000000000000E+000  0.000000000000000E+000   1.00000000000000             
  0.000000000000000E+000                                                        
  4.145000000000000E-002  0.000000000000000E+000  0.000000000000000E+000        
  0.000000000000000E+000  0.000000000000000E+000  0.000000000000000E+000        
  0.000000000000000E+000  0.000000000000000E+000  0.000000000000000E+000        
   1.00000000000000                                                             
   10    8                                                                      
   34.5100000000000       5.378000000000000E-003  0.000000000000000E+000        
  0.000000000000000E+000  0.000000000000000E+000  0.000000000000000E+000        
  0.000000000000000E+000  0.000000000000000E+000  0.000000000000000E+000        
   7.91500000000000       3.613200000000000E-002  0.000000000000000E+000        
  0.000000000000000E+000  0.000000000000000E+000  0.000000000000000E+000        
  0.000000000000000E+000  0.000000000000000E+000  0.000000000000000E+000        
   2.36800000000000       0.142493000000000       0.000000000000000E+000        
  0.000000000000000E+000  0.000000000000000E+000  0.000000000000000E+000        
  0.000000000000000E+000  0.000000000000000E+000  0.000000000000000E+000        
  0.813200000000000       0.342150000000000        1.00000000000000             
  0.000000000000000E+000  0.000000000000000E+000  0.000000000000000E+000        
  0.000000000000000E+000  0.000000000000000E+000  0.000000000000000E+000        
  0.289000000000000       0.463864000000000       0.000000000000000E+000        
   1.00000000000000       0.000000000000000E+000  0.000000000000000E+000        
  0.000000000000000E+000  0.000000000000000E+000  0.000000000000000E+000        
  0.100700000000000       0.250028000000000       0.000000000000000E+000        
  0.000000000000000E+000   1.00000000000000       0.000000000000000E+000        
  0.000000000000000E+000  0.000000000000000E+000  0.000000000000000E+000        
   8.18200000000000       0.000000000000000E+000  0.000000000000000E+000        
  0.000000000000000E+000  0.000000000000000E+000   1.00000000000000             
  0.000000000000000E+000  0.000000000000000E+000  0.000000000000000E+000        
   24.1860000000000       0.000000000000000E+000  0.000000000000000E+000        
  0.000000000000000E+000  0.000000000000000E+000  0.000000000000000E+000        
   1.00000000000000       0.000000000000000E+000  0.000000000000000E+000        
   71.4940000000000       0.000000000000000E+000  0.000000000000000E+000        
  0.000000000000000E+000  0.000000000000000E+000  0.000000000000000E+000        
  0.000000000000000E+000   1.00000000000000       0.000000000000000E+000        
  3.218000000000000E-002  0.000000000000000E+000  0.000000000000000E+000        
  0.000000000000000E+000  0.000000000000000E+000  0.000000000000000E+000        
  0.000000000000000E+000  0.000000000000000E+000   1.00000000000000             
    6    6                                                                      
   1.84800000000000        1.00000000000000       0.000000000000000E+000        
  0.000000000000000E+000  0.000000000000000E+000  0.000000000000000E+000        
  0.000000000000000E+000                                                        
  0.649000000000000       0.000000000000000E+000   1.00000000000000             
  0.000000000000000E+000  0.000000000000000E+000  0.000000000000000E+000        
  0.000000000000000E+000                                                        
  0.228000000000000       0.000000000000000E+000  0.000000000000000E+000        
   1.00000000000000       0.000000000000000E+000  0.000000000000000E+000        
  0.000000000000000E+000                                                        
   8.65600000000000       0.000000000000000E+000  0.000000000000000E+000        
  0.000000000000000E+000   1.00000000000000       0.000000000000000E+000        
  0.000000000000000E+000                                                        
   33.2130000000000       0.000000000000000E+000  0.000000000000000E+000        
  0.000000000000000E+000  0.000000000000000E+000   1.00000000000000             
  0.000000000000000E+000                                                        
  7.660000000000000E-002  0.000000000000000E+000  0.000000000000000E+000        
  0.000000000000000E+000  0.000000000000000E+000  0.000000000000000E+000        
   1.00000000000000                                                             
    4    4                                                                      
   1.41900000000000        1.00000000000000       0.000000000000000E+000        
  0.000000000000000E+000  0.000000000000000E+000                                
  0.485000000000000       0.000000000000000E+000   1.00000000000000             
  0.000000000000000E+000  0.000000000000000E+000                                
   24.6940000000000       0.000000000000000E+000  0.000000000000000E+000        
   1.00000000000000       0.000000000000000E+000                                
  0.187000000000000       0.000000000000000E+000  0.000000000000000E+000        
  0.000000000000000E+000   1.00000000000000                                     
    2    2                                                                      
   1.01100000000000        1.00000000000000       0.000000000000000E+000        
  0.424000000000000       0.000000000000000E+000   1.00000000000000             
          8.00000000    1    5    1    1    1    1    1                         
O #2   0.000000000000000   0.000000000000000  -1.126047872463988                
   16    9                                                                      
   61420.0000000000       9.000000000000001E-005 -2.000000000000000E-005        
  0.000000000000000E+000  0.000000000000000E+000  0.000000000000000E+000        
  0.000000000000000E+000  0.000000000000000E+000  0.000000000000000E+000        
  0.000000000000000E+000                                                        
   9199.00000000000       6.980000000000001E-004 -1.590000000000000E-004        
  0.000000000000000E+000  0.000000000000000E+000  0.000000000000000E+000        
  0.000000000000000E+000  0.000000000000000E+000  0.000000000000000E+000        
  0.000000000000000E+000                                                        
   2091.00000000000       3.664000000000000E-003 -8.290000000000000E-004        
  0.000000000000000E+000  0.000000000000000E+000  0.000000000000000E+000        
  0.000000000000000E+000  0.000000000000000E+000  0.000000000000000E+000        
  0.000000000000000E+000                                                        
   590.900000000000       1.521800000000000E-002 -3.508000000000000E-003        
  0.000000000000000E+000  0.000000000000000E+000  0.000000000000000E+000        
  0.000000000000000E+000  0.000000000000000E+000  0.000000000000000E+000        
  0.000000000000000E+000                                                        
   192.300000000000       5.242300000000000E-002 -1.215600000000000E-002        
  0.000000000000000E+000  0.000000000000000E+000  0.000000000000000E+000        
  0.000000000000000E+000  0.000000000000000E+000  0.000000000000000E+000        
  0.000000000000000E+000                                                        
   69.3200000000000       0.145921000000000      -3.626100000000000E-002        
  0.000000000000000E+000  0.000000000000000E+000  0.000000000000000E+000        
  0.000000000000000E+000  0.000000000000000E+000  0.000000000000000E+000        
  0.000000000000000E+000                                                        
   26.9700000000000       0.305258000000000      -8.299200000000000E-002        
  0.000000000000000E+000  0.000000000000000E+000  0.000000000000000E+000        
  0.000000000000000E+000  0.000000000000000E+000  0.000000000000000E+000        
  0.000000000000000E+000                                                        
   11.1000000000000       0.398508000000000      -0.152090000000000             
  0.000000000000000E+000  0.000000000000000E+000  0.000000000000000E+000        
  0.000000000000000E+000  0.000000000000000E+000  0.000000000000000E+000        
  0.000000000000000E+000                                                        
   4.68200000000000       0.216980000000000      -0.115331000000000             
  0.000000000000000E+000  0.000000000000000E+000  0.000000000000000E+000        
  0.000000000000000E+000  0.000000000000000E+000  0.000000000000000E+000        
  0.000000000000000E+000                                                        
   1.42800000000000       1.759400000000000E-002  0.288979000000000             
   1.00000000000000       0.000000000000000E+000  0.000000000000000E+000        
  0.000000000000000E+000  0.000000000000000E+000  0.000000000000000E+000        
  0.000000000000000E+000                                                        
  0.554700000000000      -2.502000000000000E-003  0.586128000000000             
  0.000000000000000E+000   1.00000000000000       0.000000000000000E+000        
  0.000000000000000E+000  0.000000000000000E+000  0.000000000000000E+000        
  0.000000000000000E+000                                                        
  0.206700000000000       9.540000000000000E-004  0.277624000000000             
  0.000000000000000E+000  0.000000000000000E+000   1.00000000000000             
  0.000000000000000E+000  0.000000000000000E+000  0.000000000000000E+000        
  0.000000000000000E+000                                                        
   12.9740000000000       0.000000000000000E+000  0.000000000000000E+000        
  0.000000000000000E+000  0.000000000000000E+000  0.000000000000000E+000        
   1.00000000000000       0.000000000000000E+000  0.000000000000000E+000        
  0.000000000000000E+000                                                        
   34.9000000000000       0.000000000000000E+000  0.000000000000000E+000        
  0.000000000000000E+000  0.000000000000000E+000  0.000000000000000E+000        
  0.000000000000000E+000   1.00000000000000       0.000000000000000E+000        
  0.000000000000000E+000                                                        
   93.8810000000000       0.000000000000000E+000  0.000000000000000E+000        
  0.000000000000000E+000  0.000000000000000E+000  0.000000000000000E+000        
  0.000000000000000E+000  0.000000000000000E+000   1.00000000000000             
  0.000000000000000E+000                                                        
  6.959000000000000E-002  0.000000000000000E+000  0.000000000000000E+000        
  0.000000000000000E+000  0.000000000000000E+000  0.000000000000000E+000        
  0.000000000000000E+000  0.000000000000000E+000  0.000000000000000E+000        
   1.00000000000000                                                             
   10    8                                                                      
   63.4200000000000       6.044000000000000E-003  0.000000000000000E+000        
  0.000000000000000E+000  0.000000000000000E+000  0.000000000000000E+000        
  0.000000000000000E+000  0.000000000000000E+000  0.000000000000000E+000        
   14.6600000000000       4.179900000000000E-002  0.000000000000000E+000        
  0.000000000000000E+000  0.000000000000000E+000  0.000000000000000E+000        
  0.000000000000000E+000  0.000000000000000E+000  0.000000000000000E+000        
   4.45900000000000       0.161143000000000       0.000000000000000E+000        
  0.000000000000000E+000  0.000000000000000E+000  0.000000000000000E+000        
  0.000000000000000E+000  0.000000000000000E+000  0.000000000000000E+000        
   1.53100000000000       0.356731000000000        1.00000000000000             
  0.000000000000000E+000  0.000000000000000E+000  0.000000000000000E+000        
  0.000000000000000E+000  0.000000000000000E+000  0.000000000000000E+000        
  0.530200000000000       0.448309000000000       0.000000000000000E+000        
   1.00000000000000       0.000000000000000E+000  0.000000000000000E+000        
  0.000000000000000E+000  0.000000000000000E+000  0.000000000000000E+000        
  0.175000000000000       0.244940000000000       0.000000000000000E+000        
  0.000000000000000E+000   1.00000000000000       0.000000000000000E+000        
  0.000000000000000E+000  0.000000000000000E+000  0.000000000000000E+000        
   14.4750000000000       0.000000000000000E+000  0.000000000000000E+000        
  0.000000000000000E+000  0.000000000000000E+000   1.00000000000000             
  0.000000000000000E+000  0.000000000000000E+000  0.000000000000000E+000        
   42.7300000000000       0.000000000000000E+000  0.000000000000000E+000        
  0.000000000000000E+000  0.000000000000000E+000  0.000000000000000E+000        
   1.00000000000000       0.000000000000000E+000  0.000000000000000E+000        
   126.140000000000       0.000000000000000E+000  0.000000000000000E+000        
  0.000000000000000E+000  0.000000000000000E+000  0.000000000000000E+000        
  0.000000000000000E+000   1.00000000000000       0.000000000000000E+000        
  5.348000000000000E-002  0.000000000000000E+000  0.000000000000000E+000        
  0.000000000000000E+000  0.000000000000000E+000  0.000000000000000E+000        
  0.000000000000000E+000  0.000000000000000E+000   1.00000000000000             
    6    6                                                                      
   3.77500000000000        1.00000000000000       0.000000000000000E+000        
  0.000000000000000E+000  0.000000000000000E+000  0.000000000000000E+000        
  0.000000000000000E+000                                                        
   1.30000000000000       0.000000000000000E+000   1.00000000000000             
  0.000000000000000E+000  0.000000000000000E+000  0.000000000000000E+000        
  0.000000000000000E+000                                                        
  0.444000000000000       0.000000000000000E+000  0.000000000000000E+000        
   1.00000000000000       0.000000000000000E+000  0.000000000000000E+000        
  0.000000000000000E+000                                                        
   14.9270000000000       0.000000000000000E+000  0.000000000000000E+000        
  0.000000000000000E+000   1.00000000000000       0.000000000000000E+000        
  0.000000000000000E+000                                                        
   57.5440000000000       0.000000000000000E+000  0.000000000000000E+000        
  0.000000000000000E+000  0.000000000000000E+000   1.00000000000000             
  0.000000000000000E+000                                                        
  0.154000000000000       0.000000000000000E+000  0.000000000000000E+000        
  0.000000000000000E+000  0.000000000000000E+000  0.000000000000000E+000        
   1.00000000000000                                                             
    4    4                                                                      
   2.66600000000000        1.00000000000000       0.000000000000000E+000        
  0.000000000000000E+000  0.000000000000000E+000                                
  0.859000000000000       0.000000000000000E+000   1.00000000000000             
  0.000000000000000E+000  0.000000000000000E+000                                
   26.4830000000000       0.000000000000000E+000  0.000000000000000E+000        
   1.00000000000000       0.000000000000000E+000                                
  0.324000000000000       0.000000000000000E+000  0.000000000000000E+000        
  0.000000000000000E+000   1.00000000000000                                     
    2    2                                                                      
   1.84600000000000        1.00000000000000       0.000000000000000E+000        
  0.714000000000000       0.000000000000000E+000   1.00000000000000             
FINISH                                                                          
 
********************************************************************************
 ONE- AND TWO-ELECTRON INTEGRALS OVER SYMMETRY-ADAPTED AOS ARE CALCULATED.

  SPHERICAL HARMONICS ARE USED.
  
  INTEGRALS LESS THAN  0.10E-13 ARE NEGLECTED.

  NUCLEAR REPULSION ENERGY :   17.0512621111 A.U.
  @MOLECU-I, ONE ELECTRON INTEGRALS (CPU/WALL):        0.07/       0.08 SECONDS.
  @TWOEL-I,    4472482 INTEGRALS OF SYMMETRY TYPE  I I I I
  @TWOEL-I,   19288447 INTEGRALS OF SYMMETRY TYPE  I J I J
  @TWOEL-I,   10156772 INTEGRALS OF SYMMETRY TYPE  I I J J
  @TWOEL-I,   14267329 INTEGRALS OF SYMMETRY TYPE  I J K L
  @TWOEL-I, TOTAL NUMBER OF 2-E INTEGRALS   48185030.
  @MOLECU-I, TWO ELECTRON INTEGRALS (CPU/WALL):      230.81/      31.17 SECONDS.
 @CHECKOUT-I, Total execution time (CPU/WALL):      230.89/      31.27 seconds.

Running with 14 threads/proc

--executable xvmol finished with status     0 in       31.30 seconds (walltime).
 --invoking executable--
/nfs/workspaces/public/cfour_mpi/bin/xvmol2ja
 @GETMEM-I,  Allocated    3814 MB of main memory.
 @CHECKOUT-I, Total execution time (CPU/WALL):        0.17/       0.09 seconds.
--executable xvmol2ja finished with status     0 in        0.11 seconds (walltime).
 --invoking executable--
/nfs/workspaces/public/cfour_mpi/bin/xvprop
 @GETMEM-I,  Allocated    3814 MB of main memory.
   Property integrals will be calculated.
    --------------------------------------------------------------
                                   Property evaluated at 
    Property type                X             Y             Z
    --------------------------------------------------------------
    Dipole moment               ----          ----          ----  
    Quadrupole moment           ----          ----          ----  
    Octopole moment             ----          ----          ----  
    Relativisitic corr.         ----          ----          ----  
    Second moment            0.0000000     0.0000000     0.0000000
    Electron density         0.0000000     0.0000000     1.6889930
    Electron density         0.0000000     0.0000000    -1.1260479
    Field gradient           0.0000000     0.0000000     1.6889930
    Field gradient           0.0000000     0.0000000    -1.1260479
    Potential                0.0000000     0.0000000     1.6889930
    Potential                0.0000000     0.0000000    -1.1260479
    --------------------------------------------------------------
 @CHECKOUT-I, Total execution time (CPU/WALL):        1.33/       1.36 seconds.
--executable xvprop finished with status     0 in        1.41 seconds (walltime).
 --invoking executable--
/nfs/workspaces/public/cfour_mpi/bin/xvscf
  There are  218 functions in the AO basis.

  There are 4 irreducible representations.

       Irrep        # of functions
         1                 86
         2                 52
         3                 52
         4                 28


  Parameters for SCF calculation: 
        SCF reference function:  RHF  
  Maximum number of iterations:  150
     Full symmetry point group: CXv 
     Computational point group: C2v 
        Initial density matrix: MOREAD                 
     SCF convergence tolerance: 10**(-10)
  DIIS convergence acceleration:  ON
          Latest start for DIIS:   8
                     DIIS order:   6

  Memory information:    2523578 words required.
  Fock matrices are constructed from AO integral file.
 @GETMEM-I,  Allocated      19 MB of main memory.
  Initialization and symmetry analysis required      0.001 seconds.

  Adding electric field perturbation to one-electron Hamiltonian.
  Field direction     : Z
  Field strength      : -0.0002000 a.u.

  @INITGES-I, Occupancies from core Hamiltonian:

          Alpha population by irrep:   5    1    1    0
           Beta population by irrep:   5    1    1    0


 total no. of electrons in initial guess :  0.000000000000000E+000
  --------------------------------------------------------------------
  Iteration         Total Energy            Largest Density Difference
  --------------------------------------------------------------------
       0            17.051487226130796              0.0000000000D+00
   current occupation vector 
     5  1  1  0
     5  1  1  0
       1           -93.398978817194177              0.1752791899D+02
   current occupation vector 
     5  1  1  0
     5  1  1  0
       2           -98.252565845185615              0.1752788872D+02
   current occupation vector 
     5  1  1  0
     5  1  1  0
       3          -102.049383012067722              0.6178719051D+01
   current occupation vector 
     5  1  1  0
     5  1  1  0
       4           -97.067373809451453              0.6178600271D+01
   current occupation vector 
     5  1  1  0
     5  1  1  0
       5          -100.779254334960996              0.6739496996D+01
   current occupation vector 
     5  1  1  0
     5  1  1  0
       6           -96.019075717340939              0.6737923659D+01
   current occupation vector 
     5  1  1  0
     5  1  1  0
       7          -100.740826679189553              0.6812949024D+01
   current occupation vector 
     5  1  1  0
     5  1  1  0
       8           -95.978515892985286              0.6813144800D+01
   current occupation vector 
     5  1  1  0
     5  1  1  0
       9          -107.489626595420930              0.5436939508D+01
   current occupation vector 
     5  1  1  0
     5  1  1  0
      10          -109.479605336282049              0.9138998095D+00
   current occupation vector 
     5  1  1  0
     5  1  1  0
      11          -112.315427572787769              0.1556671644D+01
   current occupation vector 
     5  1  1  0
     5  1  1  0
      12          -112.595882563287773              0.5130015956D+00
   current occupation vector 
     5  1  1  0
     5  1  1  0
      13          -112.600581210790580              0.1255039601D+00
   current occupation vector 
     5  1  1  0
     5  1  1  0
      14          -112.602083441670516              0.5555931206D-01
   current occupation vector 
     5  1  1  0
     5  1  1  0
      15          -112.602187931583785              0.1577828720D-01
   current occupation vector 
     5  1  1  0
     5  1  1  0
      16          -112.602232523940444              0.1270761265D-01
   current occupation vector 
     5  1  1  0
     5  1  1  0
      17          -112.602242588266819              0.5650298382D-02
   current occupation vector 
     5  1  1  0
     5  1  1  0
      18          -112.602244157359337              0.3199453293D-02
   current occupation vector 
     5  1  1  0
     5  1  1  0
      19          -112.602244165806383              0.2389502483D-03
   current occupation vector 
     5  1  1  0
     5  1  1  0
      20          -112.602244166060984              0.1331588720D-04
   current occupation vector 
     5  1  1  0
     5  1  1  0
      21          -112.602244166067294              0.4489581858D-05
   current occupation vector 
     5  1  1  0
     5  1  1  0
      22          -112.602244166067209              0.4511949379D-06
   current occupation vector 
     5  1  1  0
     5  1  1  0
      23          -112.602244166067493              0.8026409115D-07
   current occupation vector 
     5  1  1  0
     5  1  1  0
      24          -112.602244166066953              0.2035229918D-07
   current occupation vector 
     5  1  1  0
     5  1  1  0
      25          -112.602244166070506              0.4469453252D-08
   current occupation vector 
     5  1  1  0
     5  1  1  0
      26          -112.602244166067891              0.7964324755D-09
   current occupation vector 
     5  1  1  0
     5  1  1  0
      27          -112.602244166067351              0.7683198522D-09
   current occupation vector 
     5  1  1  0
     5  1  1  0
      28          -112.602244166067436              0.6226728022D-09
   current occupation vector 
     5  1  1  0
     5  1  1  0
      29          -112.602244166066896              0.1318167797D-09
   current occupation vector 
     5  1  1  0
     5  1  1  0

  SCF has converged.

 Density matrix saved to file den.dat
 total electron number:   14.0000000000000     
     E(SCF)=      -112.602244166070136              0.1665156901D-10

  Eigenvector printing suppressed.

 @PUTMOS-I, Writing converged MOs to NEWMOS. 
 @PUTMOS-I, Symmetry   1 Full Blocks 21 Partial Blocksize   2
 @PUTMOS-I, Symmetry   2 Full Blocks 13 Partial Blocksize   0
 @PUTMOS-I, Symmetry   3 Full Blocks 13 Partial Blocksize   0
 @PUTMOS-I, Symmetry   4 Full Blocks  7 Partial Blocksize   0
 @PUTFOCK-I, Writing converged Fock matrix to NEWFOCK. 
 @PUTFOCK-I, Symmetry   1 Full Blocks 21 Partial Blocksize   2
 @PUTFOCK-I, Symmetry   2 Full Blocks 13 Partial Blocksize   0
 @PUTFOCK-I, Symmetry   3 Full Blocks 13 Partial Blocksize   0
 @PUTFOCK-I, Symmetry   4 Full Blocks  7 Partial Blocksize   0


 
  ORBITAL EIGENVALUES (ALPHA)  (1H = 27.2113834 eV)

       MO #        E(hartree)               E(eV)           FULLSYM    COMPSYM
       ----   --------------------   --------------------   -------   ---------
    1     1         -20.6553266013        -562.0600114007     SG+        A1 (1)
    2     2         -11.4962830023        -312.8297644517     SG+        A1 (1)
    3     3          -1.3192872226         -35.8996304276     SG+        A1 (1)
    4     4          -0.7973680344         -21.6974872941     SG+        A1 (1)
    5     5          -0.5511747719         -14.9982280395     SG+        A1 (1)
    6   139          -0.5206272215         -14.1669869332      PI        B2 (3)
    7    87          -0.5206272215         -14.1669869332      PI        B1 (2)
  +++++++++++++++++++++++++++++++++++++++++++++++++++++++++++++++++++++++++++++
    8   140           0.0141915912           0.3861728302      PI        B2 (3)
    9    88           0.0141915912           0.3861728302      PI        B1 (2)
   10     6           0.0619048547           1.6845167362     SG+        A1 (1)
   11     7           0.0684513683           1.8626564258     SG+        A1 (1)
   12   141           0.0844804735           2.2988305553      PI        B2 (3)
   13    89           0.0844804735           2.2988305553      PI        B1 (2)
   14     8           0.1574217942           4.2836647980     SG+        A1 (1)
   15    90           0.1761564663           4.7934611426      PI        B1 (2)
   16   142           0.1761564663           4.7934611426      PI        B2 (3)
   17     9           0.2171534829           5.9090466794     SG+        A1 (1)
   18    10           0.2236301014           6.0852844299      DE        A1 (1)
   19   191           0.2236301014           6.0852844299      DE        A2 (4)
   20    91           0.2908418762           7.9142098009      PI        B1 (2)
   21   143           0.2908418762           7.9142098009      PI        B2 (3)
   22    11           0.2998884599           8.1603798598     SG+        A1 (1)
   23    12           0.3447676507           9.3816047264     SG+        A1 (1)
   24    92           0.4015220284          10.9259698586      PI        B1 (2)
   25   144           0.4015220284          10.9259698586      PI        B2 (3)
   26    13           0.4460458731          12.1375252676     SG+        A1 (1)
   27    14           0.5123753008          13.9424407549     SG+        A1 (1)
   28   192           0.5486331757          14.9290676910      DE        A2 (4)
   29    15           0.5486331757          14.9290676910      DE        A1 (1)
   30    93           0.6242219843          16.9859437407      PI        B1 (2)
   31   145           0.6242219843          16.9859437407      PI        B2 (3)
   32    16           0.7173437073          19.5199146498     SG+        A1 (1)
   33    94           0.7362041995          20.0331347320      PH        B1 (2)
   34   146           0.7362041995          20.0331347320      PH        B2 (3)
   35    17           0.7456671622          20.2906350401      DE        A1 (1)
   36   193           0.7456671622          20.2906350401      DE        A2 (4)
   37    95           0.7844040409          21.3447190964      PI        B1 (2)
   38   147           0.7844040409          21.3447190964      PI        B2 (3)
   39    18           0.8245788798          22.4379320416     SG+        A1 (1)
   40   194           0.8676050532          23.6087337421      DE        A2 (4)
   41    19           0.8676050532          23.6087337421      DE        A1 (1)
   42    20           0.8724184360          23.7397125482     SG+        A1 (1)
   43    96           0.8946947162          24.3458809483      PI        B1 (2)
   44   148           0.8946947162          24.3458809483      PI        B2 (3)
   45    97           1.0329103024          28.1069182560      PI        B1 (2)
   46   149           1.0329103024          28.1069182560      PI        B2 (3)
   47    21           1.1252517272          30.6196561695     SG+        A1 (1)
   48    22           1.3829660765          37.6324201359     SG+        A1 (1)
   49    98           1.4246548830          38.7668302332      PH        B1 (2)
   50   150           1.4246548830          38.7668302332      PH        B2 (3)
   51    99           1.5256801194          41.5158666734      PI        B1 (2)
   52   151           1.5256801194          41.5158666734      PI        B2 (3)
   53   195           1.5749150427          42.8556170504      DE        A2 (4)
   54    23           1.5749150427          42.8556170504      DE        A1 (1)
   55    24           1.6122563427          43.8717254808     SG+        A1 (1)
   56   100           1.6390432234          44.6006335604      PI        B1 (2)
   57   152           1.6390432234          44.6006335604      PI        B2 (3)
   58   196           1.6979779499          46.2043290007      DE        A2 (4)
   59    25           1.6979779499          46.2043290007      DE        A1 (1)
   60    26           1.9054112897          51.8488771378     SG+        A1 (1)
   61    27           1.9853919741          54.0252622053     SG+        A1 (1)
   62    28           2.0767433774          56.5110602662      PI        A1 (1)
   63   197           2.0767433774          56.5110602662      PI        A2 (4)
   64   101           2.0899871998          56.8714429948      PI        B1 (2)
   65   153           2.0899871998          56.8714429948      PI        B2 (3)
   66    29           2.1382134240          58.1837452719      DE        A1 (1)
   67   198           2.1382134240          58.1837452719      DE        A2 (4)
   68   154           2.2164859695          60.3136495162      PH        B2 (3)
   69   102           2.2164859695          60.3136495162      PH        B1 (2)
   70   155           2.2387838673          60.9204061640      PH        B2 (3)
   71   103           2.2387838673          60.9204061640      PH        B1 (2)
   72   104           2.2444975447          61.0758832280      PI        B1 (2)
   73   156           2.2444975447          61.0758832280      PI        B2 (3)
   74    30           2.2454181810          61.1009350176     SG+        A1 (1)
   75   199           2.3001782122          62.5910312213      DE        A2 (4)
   76    31           2.3001782122          62.5910312213      DE        A1 (1)
   77    32           2.4546387636          66.7941165042     SG+        A1 (1)
   78   105           2.5199548450          68.5714574392      PI        B1 (2)
   79   157           2.5199548450          68.5714574392      PI        B2 (3)
   80    33           2.6040490115          70.8597760450     SG+        A1 (1)
   81   106           2.6075036540          70.9537816455      PI        B1 (2)
   82   158           2.6075036540          70.9537816455      PI        B2 (3)
   83   200           2.7116681307          73.7882411582      DE        A2 (4)
   84    34           2.7116681307          73.7882411582      DE        A1 (1)
   85    35           3.0882342925          84.0351273621     SG+        A1 (1)
   86   107           3.4871424550          94.8899703147      PI        B1 (2)
   87   159           3.4871424550          94.8899703147      PI        B2 (3)
   88    36           3.7030822977         100.7659921658      PI        A1 (1)
   89   201           3.7030822977         100.7659921658      PI        A2 (4)
   90    37           3.9056095530         106.2770389583     SG+        A1 (1)
   91   160           3.9664957463         107.9338365069      PH        B2 (3)
   92   108           3.9664957463         107.9338365069      PH        B1 (2)
   93   161           4.1309598429         112.4091320943      PH        B2 (3)
   94   109           4.1309598429         112.4091320943      PH        B1 (2)
   95   110           4.1616490284         113.2442272891      PI        B1 (2)
   96   162           4.1616490284         113.2442272891      PI        B2 (3)
   97    38           4.1805678927         113.7590357579     SG+        A1 (1)
   98   202           4.2127156035         114.6338194427      DE        A2 (4)
   99    39           4.2127156035         114.6338194427      DE        A1 (1)
  100   203           4.2766972289         116.3748479802      DE        A2 (4)
  101    40           4.2766972289         116.3748479802      DE        A1 (1)
  102    41           4.4397157146         120.8108064960     SG+        A1 (1)
  103   111           4.6162923739         125.6157016719      PI        B1 (2)
  104   163           4.6162923739         125.6157016719      PI        B2 (3)
  105    42           4.7693963247         129.7818719789     SG+        A1 (1)
  106   204           4.7780976842         130.0186480076      DE        A2 (4)
  107    43           4.7780976842         130.0186480077      DE        A1 (1)
  108   112           5.1748030626         140.8135501558      PI        B1 (2)
  109   164           5.1748030626         140.8135501559      PI        B2 (3)
  110    44           5.3446319685         145.4348296255     SG+        A1 (1)
  111   113           5.3768685326         146.3120311313      PI        B1 (2)
  112   165           5.3768685326         146.3120311314      PI        B2 (3)
  113    45           5.8431773446         159.0009389975      PI        A1 (1)
  114   205           5.8431773446         159.0009389975      PI        A2 (4)
  115   166           5.9224919175         161.1591982517      PH        B2 (3)
  116   114           5.9224919175         161.1591982517      PH        B1 (2)
  117    46           6.1016963360         166.0355983882     SG+        A1 (1)
  118   206           6.1506532330         167.3677832826      DE        A2 (4)
  119    47           6.1506532330         167.3677832826      DE        A1 (1)
  120   115           6.1692925025         167.8749835921      PI        B1 (2)
  121   167           6.1692925025         167.8749835921      PI        B2 (3)
  122    48           6.2294191593         169.5111131033     SG+        A1 (1)
  123   168           6.3732371120         173.4245985540      PH        B2 (3)
  124   116           6.3732371120         173.4245985540      PH        B1 (2)
  125    49           6.4173370684         174.6246193749      DE        A1 (1)
  126   207           6.4173370684         174.6246193749      DE        A2 (4)
  127   208           6.5077997077         177.0862329369      DE        A2 (4)
  128    50           6.5077997077         177.0862329369      DE        A1 (1)
  129   117           6.8783256433         187.1687562292      PI        B1 (2)
  130   169           6.8783256433         187.1687562292      PI        B2 (3)
  131    51           7.1633891743         194.9257292654     SG+        A1 (1)
  132   118           7.4729366748         203.3489449807      PI        B1 (2)
  133   170           7.4729366748         203.3489449807      PI        B2 (3)
  134    52           8.1148357358         220.8159064351     SG+        A1 (1)
  135    53           9.6592793021         262.8423524567     SG+        A1 (1)
  136   171           9.8562432124         268.2020129376      PI        B2 (3)
  137   119           9.8562432125         268.2020129377      PI        B1 (2)
  138    54          10.6395719580         289.5174717606      PI        A1 (1)
  139   209          10.6395719580         289.5174717606      PI        A2 (4)
  140    55          10.7133216965         291.5243041710     SG+        A1 (1)
  141   172          10.7504903785         292.5357154287      PH        B2 (3)
  142   120          10.7504903785         292.5357154287      PH        B1 (2)
  143   210          10.9845444905         298.9046516048      DE        A2 (4)
  144    56          10.9845444905         298.9046516048      DE        A1 (1)
  145   121          10.9958220018         299.2115282880      PI        B1 (2)
  146   173          10.9958220018         299.2115282880      PI        B2 (3)
  147    57          11.2209848382         305.3385205572     SG+        A1 (1)
  148   122          11.8788952871         323.2411740250      PH        B1 (2)
  149   174          11.8788952871         323.2411740250      PH        B2 (3)
  150   211          12.0204647606         327.0934752457      DE        A2 (4)
  151    58          12.0204647606         327.0934752460      DE        A1 (1)
  152   175          12.4965481122         340.0483618584      PI        B2 (3)
  153   123          12.4965481122         340.0483618584      PI        B1 (2)
  154    59          12.7338462428         346.5055722695     SG+        A1 (1)
  155   212          12.7407197757         346.6926106084      DE        A2 (4)
  156    60          12.7407197757         346.6926106085      DE        A1 (1)
  157   124          13.0870962958         356.1179948970      PI        B1 (2)
  158   176          13.0870962958         356.1179948971      PI        B2 (3)
  159    61          13.7280783779         373.5600040869     SG+        A1 (1)
  160    62          17.4279808129         474.2394677867     SG+        A1 (1)
  161   125          18.7951238021         511.4413198290      PI        B1 (2)
  162   177          18.7951238021         511.4413198292      PI        B2 (3)
  163    63          19.9940280626         544.0651633228     SG+        A1 (1)
  164    64          26.2919143496         715.4393616860      DE        A1 (1)
  165   213          26.2919143496         715.4393616860      DE        A2 (4)
  166   126          26.6568251703         725.3690899361      PI        B1 (2)
  167   178          26.6568251703         725.3690899361      PI        B2 (3)
  168    65          27.1473153872         738.7160072822     SG+        A1 (1)
  169   179          33.5264653393         912.3015023947      PI        B2 (3)
  170   127          33.5264653393         912.3015023954      PI        B1 (2)
  171    66          34.3303866867         934.1773144016     SG+        A1 (1)
  172    67          35.7733529546         973.4424227518     SG+        A1 (1)
  173   214          47.0736560802        1280.9393036368      DE        A2 (4)
  174    68          47.0736560802        1280.9393036368      DE        A1 (1)
  175   128          47.2568292594        1285.9236992466      PI        B1 (2)
  176   180          47.2568292594        1285.9236992468      PI        B2 (3)
  177    69          47.6331043279        1296.1626643977     SG+        A1 (1)
  178    70          63.8457070771        1737.3300137203     SG+        A1 (1)
  179   129          66.3648170739        1805.8784816681      PI        B1 (2)
  180   181          66.3648170739        1805.8784816683      PI        B2 (3)
  181    71          67.2282721501        1829.3742887963     SG+        A1 (1)
  182   182          98.5340065584        2681.2466303986      PH        B2 (3)
  183   130          98.5340065584        2681.2466303986      PH        B1 (2)
  184   215          98.5473881182        2681.6107611539      DE        A2 (4)
  185    72          98.5473881182        2681.6107611539      DE        A1 (1)
  186   131          98.5624061340        2682.0194221391      PI        B1 (2)
  187   183          98.5624061340        2682.0194221391      PI        B2 (3)
  188    73          98.5772135489        2682.4223523823     SG+        A1 (1)
  189   184         103.2986939346        2810.9003653749      PH        B2 (3)
  190   132         103.2986939346        2810.9003653749      PH        B1 (2)
  191    74         103.3064836462        2811.1123342030      DE        A1 (1)
  192   216         103.3064836463        2811.1123342049      DE        A2 (4)
  193   133         103.3447403612        2812.1533523429      PI        B1 (2)
  194   185         103.3447403612        2812.1533523429      PI        B2 (3)
  195    75         103.3477943712        2812.2364561784     SG+        A1 (1)
  196    76         114.9898582287        3129.0331193727      DE        A1 (1)
  197   217         114.9898582287        3129.0331193727      DE        A2 (4)
  198   186         115.1655279885        3133.8133365596      PI        B2 (3)
  199   134         115.1655279885        3133.8133365596      PI        B1 (2)
  200    77         115.4258607540        3140.8973512532     SG+        A1 (1)
  201   187         116.8144265470        3178.6821474220      PI        B2 (3)
  202   135         116.8144265470        3178.6821474229      PI        B1 (2)
  203    78         117.4669156910        3196.4372796827     SG+        A1 (1)
  204    79         122.0031900538        3319.8755805759     SG+        A1 (1)
  205   218         198.5515639582        5402.8627315356      DE        A2 (4)
  206    80         198.5515639582        5402.8627315357      DE        A1 (1)
  207   136         198.6511748898        5405.5732827856      PI        B1 (2)
  208   188         198.6511748898        5405.5732827859      PI        B2 (3)
  209    81         198.8466037068        5410.8911712535     SG+        A1 (1)
  210    82         216.3751816844        5887.8680270580     SG+        A1 (1)
  211   137         224.8379826142        6118.1525477984      PI        B1 (2)
  212   189         224.8379826142        6118.1525477986      PI        B2 (3)
  213    83         225.5106485644        6136.4567188689     SG+        A1 (1)
  214   190         395.3184872630       10757.1629220223      PI        B2 (3)
  215   138         395.3184872631       10757.1629220231      PI        B1 (2)
  216    84         395.8640357542       10772.0080511777     SG+        A1 (1)
  217    85         508.6942187057       13842.2734185643     SG+        A1 (1)
  218    86         895.1993327534       24359.6122629764     SG+        A1 (1)


  VSCF finished.

 @CHECKOUT-I, Total execution time (CPU/WALL):       54.94/      11.70 seconds.
--executable xvscf finished with status     0 in       11.75 seconds (walltime).
 --invoking executable--
/nfs/workspaces/public/cfour_mpi/bin/xvtran
 @GETMEM-I,  Allocated    3814 MB of main memory.
  Full RHF integral transformation
  Transformation of IIII integrals :
  1 pass through the AO integral file was required.
     4472482 AO integrals were read.
     8679832 MO integrals were written to HF2.
  Transformation of IIJJ integrals :
  1 pass through the AO integral file was required.
    10156772 AO integrals were read.
    14440770 MO integrals were written to HF2.
  Transformation of IJIJ integrals :
  1 pass through the AO integral file was required.
    19288447 AO integrals were read.
    26853040 MO integrals were written to HF2.
  Transformation of IJKL integrals :
  1 pass through the AO integral file was required.
    14267329 AO integrals were read.
    18146700 MO integrals were written to HF2.
  Summary of active molecular orbitals: 
------------------------------------------------------------------------
 
  Index      Eigenvalue    Symmetry    Index      Eigenvalue    Symmetry
------------------------------------------------------------------------
     1       -20.6553266        1       110         4.1309598        2
     2       -11.4962830        1       111         4.1616490        2
     3        -1.3192872        1       112         4.6162924        2
     4        -0.7973680        1       113         5.1748031        2
     5        -0.5511748        1       114         5.3768685        2
     6        -0.5206272        2       115         5.9224919        2
     7        -0.5206272        3       116         6.1692925        2
     8         0.0619049        1       117         6.3732371        2
     9         0.0684514        1       118         6.8783256        2
    10         0.1574218        1       119         7.4729367        2
    11         0.2171535        1       120         9.8562432        2
    12         0.2236301        1       121        10.7504904        2
    13         0.2998885        1       122        10.9958220        2
    14         0.3447677        1       123        11.8788953        2
    15         0.4460459        1       124        12.4965481        2
    16         0.5123753        1       125        13.0870963        2
    17         0.5486332        1       126        18.7951238        2
    18         0.7173437        1       127        26.6568252        2
    19         0.7456672        1       128        33.5264653        2
    20         0.8245789        1       129        47.2568293        2
    21         0.8676051        1       130        66.3648171        2
    22         0.8724184        1       131        98.5340066        2
    23         1.1252517        1       132        98.5624061        2
    24         1.3829661        1       133       103.2986939        2
    25         1.5749150        1       134       103.3447404        2
    26         1.6122563        1       135       115.1655280        2
    27         1.6979779        1       136       116.8144265        2
    28         1.9054113        1       137       198.6511749        2
    29         1.9853920        1       138       224.8379826        2
    30         2.0767434        1       139       395.3184873        2
    31         2.1382134        1       140         0.0141916        3
    32         2.2454182        1       141         0.0844805        3
    33         2.3001782        1       142         0.1761565        3
    34         2.4546388        1       143         0.2908419        3
    35         2.6040490        1       144         0.4015220        3
    36         2.7116681        1       145         0.6242220        3
    37         3.0882343        1       146         0.7362042        3
    38         3.7030823        1       147         0.7844040        3
    39         3.9056096        1       148         0.8946947        3
    40         4.1805679        1       149         1.0329103        3
    41         4.2127156        1       150         1.4246549        3
    42         4.2766972        1       151         1.5256801        3
    43         4.4397157        1       152         1.6390432        3
    44         4.7693963        1       153         2.0899872        3
    45         4.7780977        1       154         2.2164860        3
    46         5.3446320        1       155         2.2387839        3
    47         5.8431773        1       156         2.2444975        3
    48         6.1016963        1       157         2.5199548        3
    49         6.1506532        1       158         2.6075037        3
    50         6.2294192        1       159         3.4871425        3
    51         6.4173371        1       160         3.9664957        3
    52         6.5077997        1       161         4.1309598        3
    53         7.1633892        1       162         4.1616490        3
    54         8.1148357        1       163         4.6162924        3
    55         9.6592793        1       164         5.1748031        3
    56        10.6395720        1       165         5.3768685        3
    57        10.7133217        1       166         5.9224919        3
    58        10.9845445        1       167         6.1692925        3
    59        11.2209848        1       168         6.3732371        3
    60        12.0204648        1       169         6.8783256        3
    61        12.7338462        1       170         7.4729367        3
    62        12.7407198        1       171         9.8562432        3
    63        13.7280784        1       172        10.7504904        3
    64        17.4279808        1       173        10.9958220        3
    65        19.9940281        1       174        11.8788953        3
    66        26.2919143        1       175        12.4965481        3
    67        27.1473154        1       176        13.0870963        3
    68        34.3303867        1       177        18.7951238        3
    69        35.7733530        1       178        26.6568252        3
    70        47.0736561        1       179        33.5264653        3
    71        47.6331043        1       180        47.2568293        3
    72        63.8457071        1       181        66.3648171        3
    73        67.2282722        1       182        98.5340066        3
    74        98.5473881        1       183        98.5624061        3
    75        98.5772135        1       184       103.2986939        3
    76       103.3064836        1       185       103.3447404        3
    77       103.3477944        1       186       115.1655280        3
    78       114.9898582        1       187       116.8144265        3
    79       115.4258608        1       188       198.6511749        3
    80       117.4669157        1       189       224.8379826        3
    81       122.0031901        1       190       395.3184873        3
    82       198.5515640        1       191         0.2236301        4
    83       198.8466037        1       192         0.5486332        4
    84       216.3751817        1       193         0.7456672        4
    85       225.5106486        1       194         0.8676051        4
    86       395.8640358        1       195         1.5749150        4
    87       508.6942187        1       196         1.6979779        4
    88       895.1993328        1       197         2.0767434        4
    89         0.0141916        2       198         2.1382134        4
    90         0.0844805        2       199         2.3001782        4
    91         0.1761565        2       200         2.7116681        4
    92         0.2908419        2       201         3.7030823        4
    93         0.4015220        2       202         4.2127156        4
    94         0.6242220        2       203         4.2766972        4
    95         0.7362042        2       204         4.7780977        4
    96         0.7844040        2       205         5.8431773        4
    97         0.8946947        2       206         6.1506532        4
    98         1.0329103        2       207         6.4173371        4
    99         1.4246549        2       208         6.5077997        4
   100         1.5256801        2       209        10.6395720        4
   101         1.6390432        2       210        10.9845445        4
   102         2.0899872        2       211        12.0204648        4
   103         2.2164860        2       212        12.7407198        4
   104         2.2387839        2       213        26.2919143        4
   105         2.2444975        2       214        47.0736561        4
   106         2.5199548        2       215        98.5473881        4
   107         2.6075037        2       216       103.3064836        4
   108         3.4871425        2       217       114.9898582        4
   109         3.9664957        2       218       198.5515640        4
------------------------------------------------------------------------
  -20.6553266013203       -11.4962830023444       -1.31928722255201     
 -0.797368034366948      -0.551174771932216      -0.520627221517034     
 -0.520627221517072       6.190485472247544E-002  6.845136825394581E-002
  0.157421794218519       0.217153482884774       0.223630101434770     
  0.299888459908899       0.344767650672128       0.446045873126649     
  0.512375300805015       0.548633175739761       0.717343707333945     
  0.745667162226383       0.824578879792999       0.867605053187776     
  0.872418436034811        1.12525172716790        1.38296607646592     
   1.57491504273783        1.61225634271880        1.69797794994640     
   1.90541128966672        1.98539197405386        2.07674337741366     
   2.13821342401354        2.24541818104054        2.30017821223097     
   2.45463876357790        2.60404901152418        2.71166813070685     
   3.08823429249312        3.70308229774962        3.90560955303187     
   4.18056789269488        4.21271560352537        4.27669722886007     
   4.43971571456253        4.76939632473511        4.77809768420868     
   5.34463196845558        5.84317734457830        6.10169633596232     
   6.15065323296252        6.22941915931151        6.41733706838703     
   6.50779970771065        7.16338917430353        8.11483573580817     
[...]
 Convergence information after    14 iterations: 
 Largest element of residual vector :  0.12868891E-05.
 Largest element of DIIS residual   :  0.88573061E-06.
 Convergence information after    15 iterations: 
 Largest element of residual vector :  0.98910081E-06.
 Largest element of DIIS residual   :  0.71490851E-06.
 Convergence information after    16 iterations: 
 Largest element of residual vector :  0.52915658E-06.
 Largest element of DIIS residual   :  0.25489465E-06.
 Convergence information after    17 iterations: 
 Largest element of residual vector :  0.27158530E-06.
 Largest element of DIIS residual   :  0.90483928E-07.
 Perturbed amplitude equations converged in    17 iterations.
  Dominant contributions to perturbed wavefunction:
    7    7  140   28   0.2308463932 ABAB
    7    7   28  140   0.2308463932 ABAB
    7    7  140   39  -0.2201117648 ABAB
    7    7   39  140  -0.2201117648 ABAB
    7    7  140   22  -0.1964761522 ABAB
    7    7   22  140  -0.1964761522 ABAB
    7    7  140   44  -0.1955224709 ABAB
    7    7   44  140  -0.1955224709 ABAB
    7    7  140   54   0.1601131399 ABAB
    7    7   54  140   0.1601131399 ABAB
    7    7  140   29  -0.1518450279 ABAB
    7    7   29  140  -0.1518450279 ABAB
    7    7  140   57   0.1503187618 ABAB
    7    7   57  140   0.1503187618 ABAB
    7    6   28   89   0.1448068161 ABAB
    6    7   89   28   0.1448068161 ABAB
    7    0   35    0  -0.1447716882 AA  
    7    6   39   89  -0.1389615447 ABAB
    6    7   89   39  -0.1389615447 ABAB
    7    7  140   24  -0.1331984933 ABAB
  norm of converged amps    1.78213876110247     
 Starting iterative solution of the perturbed Lambda equations.
 The DIIS procedure is used to accelerate convergence.
 Convergence criterion is 10**(-7).
 Maximum number of iterations is 100.
 Convergence information after     1 iterations: 
 Largest element of residual vector :  0.73116448E-01.
 Largest element of DIIS residual   :  0.73116448E-01.
 Convergence information after     2 iterations: 
 Largest element of residual vector :  0.13352699E-01.
 Largest element of DIIS residual   :  0.98516322E-02.
 Convergence information after     3 iterations: 
 Largest element of residual vector : -0.63437635E-02.
 Largest element of DIIS residual   : -0.59363492E-02.
 Convergence information after     4 iterations: 
 Largest element of residual vector : -0.38787988E-02.
 Largest element of DIIS residual   : -0.34464546E-02.
 Convergence information after     5 iterations: 
 Largest element of residual vector : -0.30600508E-02.
 Largest element of DIIS residual   : -0.21565406E-02.
 Convergence information after     6 iterations: 
 Largest element of residual vector : -0.14113383E-02.
 Largest element of DIIS residual   : -0.62484808E-03.
 Convergence information after     7 iterations: 
 Largest element of residual vector : -0.62966729E-03.
 Largest element of DIIS residual   : -0.26759808E-03.
 Convergence information after     8 iterations: 
 Largest element of residual vector : -0.17871005E-03.
 Largest element of DIIS residual   : -0.11810767E-03.
 Convergence information after     9 iterations: 
 Largest element of residual vector : -0.72217318E-04.
 Largest element of DIIS residual   : -0.29566496E-04.
 Convergence information after    10 iterations: 
 Largest element of residual vector : -0.24300267E-04.
 Largest element of DIIS residual   : -0.10982588E-04.
 Convergence information after    11 iterations: 
 Largest element of residual vector : -0.50277458E-05.
 Largest element of DIIS residual   : -0.35652201E-05.
 Convergence information after    12 iterations: 
 Largest element of residual vector : -0.20531688E-05.
 Largest element of DIIS residual   : -0.14386604E-05.
 Convergence information after    13 iterations: 
 Largest element of residual vector : -0.13487134E-05.
 Largest element of DIIS residual   :  0.13121410E-05.
 Convergence information after    14 iterations: 
 Largest element of residual vector :  0.81566452E-06.
 Largest element of DIIS residual   :  0.61629576E-06.
 Convergence information after    15 iterations: 
 Largest element of residual vector :  0.66596546E-06.
 Largest element of DIIS residual   :  0.50737278E-06.
 Convergence information after    16 iterations: 
 Largest element of residual vector :  0.36630450E-06.
 Largest element of DIIS residual   :  0.20735129E-06.
 Convergence information after    17 iterations: 
 Largest element of residual vector :  0.20191114E-06.
 Largest element of DIIS residual   :  0.81177955E-07.
 Perturbed Lambda equations converged in    17 iterations.
  Dominant contributions to perturbed wavefunction:
    7    7  140   28   0.2018403603 ABAB
    7    7   28  140   0.2018403603 ABAB
    7    7  140   39  -0.1890470168 ABAB
    7    7   39  140  -0.1890470168 ABAB
    7    7  140   22  -0.1699125147 ABAB
    7    7   22  140  -0.1699125147 ABAB
    7    7  140   44  -0.1688124110 ABAB
    7    7   44  140  -0.1688124110 ABAB
    7    7  140   54   0.1400977981 ABAB
    7    7   54  140   0.1400977981 ABAB
    7    7  140   57   0.1287405752 ABAB
    7    7   57  140   0.1287405752 ABAB
    7    7  140   29  -0.1286936052 ABAB
    7    7   29  140  -0.1286936052 ABAB
    7    6   28   89   0.1245180067 ABAB
    6    7   89   28   0.1245180067 ABAB
    7    6   39   89  -0.1175105532 ABAB
    6    7   89   39  -0.1175105532 ABAB
    7    7  140   24  -0.1112262245 ABAB
    7    7   24  140  -0.1112262245 ABAB
        The DBOC first-order density matrix is being calculated 
             (Symmetry block 3, perturbation   2)
 term   3.43374139669662     
 final tnorm  0.826491702919929     
  norm contr. I: |<0|L dT/dx|0>|^2   0.000000000000000E+000
  norm contr. II: <0|[nabla(1+L)e-T][nabla e^T]|0>   3.43374139669662     
  total norm contribution   3.43374139669662     
 oo  7.320513732119193E-003
 vv  -22.8554331792857     
 vo  6.436733687281344E-002
  Correlated perturbed 1-el contribution to DBOC  -22.7837453286807       cm**-1
  SUM_I |dc_I/dx|^2 contribution to DBOC   11.4872342153654       cm**-1
 
 
  The total diagonal Born-Oppenheimer correction (DBOC) is:      0.0038689611 a.u.
  The total diagonal Born-Oppenheimer correction (DBOC) is:        849.138810 cm-1
 
 Total CC energy including DBOC  -113.134942178552     
 First-order density matrix is being calculated  (Symmetry block 3, perturbation   2)
 Calculation of the contributions of <pq||rs> to dI(i,j)/dx required   2.2 seconds.
 Calculation of the contributions of <pq||rs> to dI(a,b)/dx required  16.4 seconds.
 Calculation of the contributions of <pq||rs> to dI(i,a)/dx required   9.8 seconds.
 First-order Z-vector equations are solved for 1 perturbation.
 Convergence reached after  19 iterations.
        U*G(pq,rs) contribution is being calculated
             (Symmetry block 3, perturbation   2)

 CCSD contribution to force constants 

        0.0000000000        0.0000000000        0.0000000000
        0.0000000000        0.0000000000        0.0000000000
        0.0000000000        0.0000000000        0.0000000000
        0.0000000000        0.0000000000        0.0000000000
        0.0000000000        0.0000000000        0.0000000000
        0.0000000000        0.0000000000        0.0000000000
        0.0000000000        0.0000000000        0.0000000000
        0.0000000000        0.0000000000        0.0000000000
        0.0000000000        0.0000000000        0.0000000000
        0.0000000000        0.0000000000        0.0000000000
        0.0000000000        0.0000000000        0.0000000000
        0.0000000000       -1.7070932347        1.7070932347

 CCSD contribution to dipole derivatives 

        0.0000000000        0.0000000000        0.0000000000
        0.0000000000        0.0000000000        0.0000000000
        0.0000000000        0.0000000000        0.0000000000
        0.0000000000        0.0000000000       -0.0562200081
        0.0000000000        0.0000000000        0.0000000000
        0.0000000000        0.0000000000        0.0000000000
 @CHECKOUT-I, Total execution time (CPU/WALL):     1305.28/     465.97 seconds.
--executable xsdcc finished with status     0 in      466.20 seconds (walltime).
 --invoking executable--
/nfs/workspaces/public/cfour_mpi/bin/xanti
 @GETMEM-I,  Allocated    3814 MB of main memory.
 CCSD MO derivative gammas will be sorted to Mulliken order.
 @CHECKOUT-I, Total execution time (CPU/WALL):       13.64/      29.81 seconds.
--executable xanti finished with status     0 in       29.96 seconds (walltime).
 --invoking executable--
/nfs/workspaces/public/cfour_mpi/bin/xbcktrn
 @GETMEM-I,  Allocated    3814 MB of main memory.
 CCSD MO derivative gammas will be transformed to the AO basis.
 @CHECKOUT-I, Total execution time (CPU/WALL):       32.93/      17.29 seconds.
--executable xbcktrn finished with status     0 in       17.33 seconds (walltime).
 --invoking executable--
/nfs/workspaces/public/cfour_mpi/bin/xvdint
 @GETMEM-I,  Allocated    3814 MB of main memory.
 One- and two-electron integral derivatives are calculated
 for RHF-CC/MBPT hessians and dipole derivatives.
 Spherical gaussians are used.
  magnet F F
                    8722  records have been written to the Sort file.
  Total length of Sort file :             178609116  words.
 Evaluation of 2el integral derivatives

                      Two-electron integral gradient
                      ------------------------------

                         C #1 z     0.0000000000
                         O #2 z     0.0000000000


 C #1       0.0000000000            0.0194915886            0.0000000000
 O #2       0.0000000000           -0.0194915886            0.0000000000


 Evaluation of 2e integral derivatives required  350.42 seconds.
  contribution to Hessian
        0.0000000000        0.0000000000        0.0000000000
        0.0000000000        0.0194915886       -0.0194915886
 @CHECKOUT-I, Total execution time (CPU/WALL):      350.39/      73.20 seconds.
--executable xvdint finished with status     0 in       73.39 seconds (walltime).
 --invoking executable--
/nfs/workspaces/public/cfour_mpi/bin/xanti
 @GETMEM-I,  Allocated    3814 MB of main memory.
 CCSD MO gammas will be sorted to Mulliken order.
 @CHECKOUT-I, Total execution time (CPU/WALL):       16.07/      50.55 seconds.
--executable xanti finished with status     0 in       50.66 seconds (walltime).
 --invoking executable--
/nfs/workspaces/public/cfour_mpi/bin/xbcktrn
 @GETMEM-I,  Allocated    3814 MB of main memory.
 CCSD MO gammas will be transformed to the AO basis.
 @CHECKOUT-I, Total execution time (CPU/WALL):       55.81/      16.03 seconds.
--executable xbcktrn finished with status     0 in       16.09 seconds (walltime).
 --invoking executable--
/nfs/workspaces/public/cfour_mpi/bin/xvdint
 @GETMEM-I,  Allocated    3814 MB of main memory.
 One- and two-electron integral derivatives are calculated
 for RHF-CC/MBPT hessians and dipole derivatives.
 Spherical gaussians are used.
  magnet F F

                     Kinetic energy integral gradient
                     --------------------------------

                         C #1 z    -0.6713003432
                         O #2 z     0.6713003432


 C #1       0.0000000000            0.0000000000           -0.6713003432
 O #2       0.0000000000            0.0000000000            0.6713003432



                   Nuclear attraction integral gradient
                   ------------------------------------

                         C #1 z    15.4374053116
                         O #2 z   -15.4374053116


 C #1       0.0000000000            0.0000000000           15.4374053116
 O #2       0.0000000000            0.0000000000          -15.4374053116



                      Reorthonormalization gradient
                      -----------------------------

                         C #1 z     0.0000000000
                         O #2 z     0.0000000000


 C #1       0.0000000000            0.0000000000            0.0000000000
 O #2       0.0000000000            0.0000000000            0.0000000000



                     Kinetic energy integral Hessian
                     -------------------------------


           Symmetry 1

           C #1 z      O #2 z

 C #1 z    0.693994
 O #2 z   -0.693994    0.693994


           Symmetry 2

           C #1 x      O #2 x

 C #1 x   -0.569503
 O #2 x    0.569503   -0.569503


           Symmetry 3

           C #1 y      O #2 y

 C #1 y   -0.569503
 O #2 y    0.569503   -0.569503




           C #1 x      C #1 y      C #1 z      O #2 x      O #2 y      O #2 z

 C #1 x   -0.569503
 C #1 y    0.000000   -0.569503
 C #1 z    0.000000    0.000000    0.693994

 O #2 x    0.569503    0.000000    0.000000   -0.569503
 O #2 y    0.000000    0.569503    0.000000    0.000000   -0.569503
 O #2 z    0.000000    0.000000   -0.693994    0.000000    0.000000    0.693994




                   Nuclear attraction integral Hessian
                   -----------------------------------


           Symmetry 1

           C #1 z      O #2 z

 C #1 z   -9.527376
 O #2 z    9.527376   -9.527376


           Symmetry 2

           C #1 x      O #2 x

 C #1 x    9.127101
 O #2 x   -9.127101    9.127101


           Symmetry 3

           C #1 y      O #2 y

 C #1 y    9.127101
 O #2 y   -9.127101    9.127101




           C #1 x      C #1 y      C #1 z      O #2 x      O #2 y      O #2 z

 C #1 x    9.127101
 C #1 y    0.000000    9.127101
 C #1 z    0.000000    0.000000   -9.527376

 O #2 x   -9.127101    0.000000    0.000000    9.127101
 O #2 y    0.000000   -9.127101    0.000000    0.000000    9.127101
 O #2 z    0.000000    0.000000    9.527376    0.000000    0.000000   -9.527376




                Highest order reorthonormalization Hessian
                ------------------------------------------


           Symmetry 1

           C #1 z      O #2 z

 C #1 z    0.000000
 O #2 z    0.000000    0.000000


           Symmetry 2

           C #1 x      O #2 x

 C #1 x    0.000000
 O #2 x    0.000000    0.000000


           Symmetry 3

           C #1 y      O #2 y

 C #1 y    0.000000
 O #2 y    0.000000    0.000000




           C #1 x      C #1 y      C #1 z      O #2 x      O #2 y      O #2 z




                Electronic contributions to dipole moment
                -----------------------------------------

                               au             Debye

                    z     -0.75280793     -1.91344722

  Conversion factor used: 1 a.u. =   2.54174691 Debye 



   Electronic contributions to static part of dipole moment derivatives
   --------------------------------------------------------------------


                     Total dipole moment derivatives
                     -------------------------------


           Symmetry 1
                              Ez

               C #1 z    -5.61403209
               O #2 z    -8.38596791

           Symmetry 2
                              Ex

               C #1 x    -5.67223719
               O #2 x    -8.32776281

           Symmetry 3
                              Ey

               C #1 y    -5.67223719
               O #2 y    -8.32776281



                       Ex          Ey          Ez

      C #1    x   -5.672237    0.000000    0.000000
      C #1    y    0.000000   -5.672237    0.000000
      C #1    z    0.000000    0.000000   -5.614032

      O #2    x   -8.327763    0.000000    0.000000
      O #2    y    0.000000   -8.327763    0.000000
      O #2    z    0.000000    0.000000   -8.385968

 Evaluation of 1e integral derivatives required    1.81 seconds.
                    8815  records have been written to the Sort file.
  Total length of Sort file :             180513570  words.
 Evaluation of 2el integral derivatives

                      Two-electron integral gradient
                      ------------------------------

                         C #1 z    -8.0697797071
                         O #2 z     8.0697797071


 C #1       0.0000000000            0.0000000000           -8.0697797071
 O #2       0.0000000000            0.0000000000            8.0697797071


 Evaluation of 2e integral derivatives required  734.04 seconds.

                            Molecular gradient
                            ------------------

                         C #1 z     0.6391265201
                         O #2 z    -0.6391265201


 C #1       0.0000000000            0.0000000000            0.6391265201
 O #2       0.0000000000            0.0000000000           -0.6391265201


  Molecular gradient norm 0.904E+00

                            Molecular hessian
                            -----------------


           Symmetry 1

           C #1 z      O #2 z

 C #1 z   23.197726
 O #2 z  -23.197726   23.197726


           Symmetry 2

           C #1 x      O #2 x

 C #1 x    1.959565
 O #2 x   -1.959565    1.959565


           Symmetry 3

           C #1 y      O #2 y

 C #1 y    1.959565
 O #2 y   -1.959565    1.959565




           C #1 x      C #1 y      C #1 z      O #2 x      O #2 y      O #2 z

 C #1 x    1.959565
 C #1 y    0.000000    1.959565
 C #1 z    0.000000    0.000000   23.197726

 O #2 x   -1.959565    0.000000    0.000000    1.959565
 O #2 y    0.000000   -1.959565    0.000000    0.000000    1.959565
 O #2 z    0.000000    0.000000  -23.197726    0.000000    0.000000   23.197726




                           Total dipole moment
                           -------------------

                               au             Debye

                    z      0.37276717      0.94747982

  Conversion factor used: 1 a.u. =   2.54174691 Debye 



                     Total dipole moment derivatives
                     -------------------------------


           Symmetry 1
                              Ez

               C #1 z     0.63088720
               O #2 z    -0.63088720

           Symmetry 2
                              Ex

               C #1 x     0.13821699
               O #2 x    -0.13821699

           Symmetry 3
                              Ey

               C #1 y     0.13821699
               O #2 y    -0.13821699



                       Ex          Ey          Ez

      C #1    x    0.138217    0.000000    0.000000
      C #1    y    0.000000    0.138217    0.000000
      C #1    z    0.000000    0.000000    0.630887

      O #2    x   -0.138217    0.000000    0.000000
      O #2    y    0.000000   -0.138217    0.000000
      O #2    z    0.000000    0.000000   -0.630887

 @CHECKOUT-I, Total execution time (CPU/WALL):      735.84/     124.68 seconds.
--executable xvdint finished with status     0 in      124.85 seconds (walltime).
 --invoking executable--
/nfs/workspaces/public/cfour_mpi/bin/xjoda
  @GTFLGS-I, Hessian will be transformed to curvilinear coordinates.
  @GTFLGS-I, Hessian will be transformed to curvilinear coordinates.
  igrd and ihes are                      0                     1
  gradient from JOBARC 
   0.000000000000000   0.000000000000000   0.639126520078750
   0.000000000000000   0.000000000000000  -0.639126520078750
 
  @PROJFCM-I, Projecting force constant matrix onto totally symmetric subspace.
  Largest difference between matrix elements of symmetrized
  and unsymmetrized FCM :     0.2264188836E-11.
  read isotopes from ZMAT file 
 
  Summary of diagonal Born-Oppenheimer correction at the correlated level
  The total diagonal Born-Oppenheimer correction (DBOC) is:      0.0038689611 a.u.
  The total diagonal Born-Oppenheimer correction (DBOC) is:        849.138810 cm-1
  The total diagonal Born-Oppenheimer correction (DBOC) is:            10.158 kJ/mole
  hellooooooo 
  readis is  F
 
 @CHECKOUT-I, Total execution time (CPU/WALL):        0.03/       0.13 seconds.
--executable xjoda finished with status     0 in        0.18 seconds (walltime).
  The final electronic energy is      -113.134942178551555 a.u. 
  This computation required                         4442.95 seconds (walltime).
