 --invoking executable--
/nfs/workspaces/public/cfour_mpi/bin/xjoda


   *************************************************************************
         <<<     CCCCCC     CCCCCC   |||     CCCCCC     CCCCCC   >>>
       <<<      CCC        CCC       |||    CCC        CCC         >>>
      <<<      CCC        CCC        |||   CCC        CCC            >>>
    <<<        CCC        CCC        |||   CCC        CCC              >>>
      <<<      CCC        CCC        |||   CCC        CCC            >>>
       <<<      CCC        CCC       |||    CCC        CCC         >>>
         <<<     CCCCCC     CCCCCC   |||     CCCCCC     CCCCCC   >>>
   *************************************************************************

     ****************************************************************
     * CFOUR Coupled-Cluster techniques for Computational Chemistry *
     ****************************************************************
 

   Department of Chemistry                Institut fuer Physikalische Chemie
   University of Florida                  Universitaet Mainz
   Gainesville, FL 32611, USA             D-55099 Mainz, Germany

   Department of Chemistry                Fakultaet fuer Chemie und Biowiss.
   Johns Hopkins University               Karlsruher Institut fuer Technologie
   Baltimore, MD 21218, USA               D-76131 Karlsruhe, Germany

   Department of Chemistry                Department of Physical Chemistry
   Southern Methodist University          Eotvos Lorand University
   Dallas, TX 75275, USA                  H-1053 Budapest, Hungary

 
                       Version 2.1
 
                     vincent.theory.phys.ucl.ac.uk                     
                     Mon  3 Mar 05:52:16 GMT 2025                      
                     integer*8 version is running
 
********************************************************************************
*                          Input from ZMAT file                                *
********************************************************************************
Carbon Monoxide DBOC calculation                                                
C                                                                               
O 1 r                                                                           
                                                                                
r=1.5517241379310345                                                            
                                                                                
                                                                                
*CFOUR(CALC=CCSD,BASIS=AUG-PCVQZ,SCF_CONV=10                                    
CC_CONV=14,DBOC=ON,MEMORY=500000000                                             
ZFIELD=200)                                                                     
                                                                                
%isotopes                                                                       
12                                                                              
18                                                                              
********************************************************************************
  @GTFLGS-I, Hessian will be transformed to curvilinear coordinates.
    -------------------------------------------------------------------
                    CFOUR Control Parameters 
    -------------------------------------------------------------------
        External           Internal           Value            Units
          Name               Name
    -------------------------------------------------------------------
       ABCDTYPE             IABCDT         STANDARD    [  0]    ***   
       ANHARMONIC           IANHAR         OFF         [  0]    ***   
       ANH_ALGORIT          IANALG         STANDARD    [  0]    ***   
       ANH_DERIVAT          IANDER         SECOND      [  1]    ***   
       ANH_MODE             ANHMOD         VIBRATION   [  0]    ***   
       ANH_STEPSIZ          ICUBST             50000          x 10-6  
       ANH_SYMMETR          IANHSM         ABELIAN     [  0]    ***   
       AO_LADDERS           IAOLAD         SINGLEPASS  [  1]    ***   
       AV_SCF               IAVSCF         OFF         [  0]    ***   
       BASIS                IBASIS         AUG-PCVQZ   [ 52]    ***   
       BOTHVECTORS          BOTHVC         OFF         [  0]    ***   
       BOX_POTENT           IPIAB          OFF         [  0]    ***   
       BREIT                IBREIT         OFF         [  0]    ***   
       BRUCK_CONV           IBRTOL          10D-  4             ***   
       BRUECKNER            IBRKNR         OFF         [  0]    ***   
       BUFFERSIZE           IBUFFS              4096            ***   
       CACHE_RECS           ICHREC             10               ***   
       CALCLEVEL            ICLLVL         CCSD        [ 10]    ***   
       CCORBOPT             ICCORB         OFF         [  0]  x 0.01  
       CC_CONV              ICCCNV          10D- 14             ***   
       CC_EXPORDER          ICCEOR              5               ***   
       CC_EXTRAPOL          ICCEXT         DIIS        [  1]    ***   
       CC_GUESS             ICCGES         MP2         [  0]    ***   
       CC_MAXCYC            ICCCYC            100              cycles 
       CC_PROGRAM           ICCPRO         VCC         [  0]    ***   
       CHARGE               ICHRGE              0               ***   
       CHOLESKY             ICHOLE         OFF         [  0]    ***   
       CIS_CONV             ICISTL              5               ***   
       COMM_SIZE            IPSIZE            ***               ***   
       CONSTANT             ICONST         OLD         [  1]    ***   
       CONTINUUM            ICONTU         NONE        [  0]    ***   
       CONTRACTION          ICNTYP         GENERAL     [  1]    ***   
       COORDINATES          ICOORD         INTERNAL    [  0]    ***   
       CPHF_CONVER          ICPHFT          10D- 16             ***   
       CPHF_MAXCYC          ICPHFC             64              cycles 
       CUBIC                ICUBIC         OFF         [  0]    ***   
       CURVILINEAR          ICURVY         ON          [  1]    ***   
       DBOC                 IDBOC          ON          [  1]    ***   
       DCT                  IDCT           OFF         [  0]    ***   
       DERIV_LEV            IDRLVL         SECOND      [  2]    ***   
       DEVMEM_SIZE          IDVMEM          50000000           MByte  
       DIAG_MRCC            IEOMST          10D-  0             ***   
       DIFF_TYPE            IDIFTY         RELAXED     [  0]    ***   
       DIRECT               IDIRCT         OFF         [  0]    ***   
       DROPMO               IDRPMO      NONE         
       ECP                  IECP           OFF         [  0]    ***   
       EIGENVECTOR          IVEC                1               ***   
       EL_ANHARM            IELANH         OFF         [  0]    ***   
       EOMFOLLOW            IEOMSR         ENERGY      [  0]    ***   
       EOMIP                IEOMIP         OFF         [  0]    ***   
       EOMLEVEL             HBARFM         SAME        [  0]    ***   
       EOM_MRCC             IMRCCE         NEW         [  1]    ***   
       EOM_NONIT            EOMNON         OFF         [  0]    ***   
       EOM_NSING            IEOMSI          10D-  0             ***   
       EOM_NSTATES          IMRCCD         DAVIDSON    [  0]    ***   
       EOM_NTRIP            IEOMTR          10D-  0             ***   
       EOM_ORDER            IEXORD         ENERGY      [  0]    ***   
       EOM_PROPSTA          IEOMST              0               ***   
       ESTATE_CONV          IEXTOL          10D-  5             ***   
       ESTATE_DIAG          IEXDIG         ITERATIVE   [  0]    ***   
       ESTATE_LOCK          IESLOC         ON          [  1]    ***   
       ESTATE_MAXC          IEXMXC             40               ***   
       ESTATE_PROP          IEXPRP         OFF         [  0]    ***   
       EVAL_HESS            IRECAL              0            # of cyc.
       EXCITATION           IEXCIT              0               ***   
       EXCITE               IEXCIT         NONE        [  0]    ***   
       EXTERN_POT           IEXPOT         OFF         [  0]    ***   
       FCGRADNEW            IFCGNW         OFF         [  0]    ***   
       FC_FIELD             IFINFC              0             x 10-6  
       FD_CALTYPE           IFDCAL         GRADONLY    [  0]    ***   
       FD_PROJECT           IFDPRJ         OFF         [  1]    ***   
       FD_STEPSIZE          IDISFD              0            10-4 bohr
       FD_USEGROUP          IFDGRP         FULL        [  0]    ***   
       FILE_RECSIZ          IFLREC              4096           words  
       FINITE_PERT          IFIPER              0             x 10-6  
       FIXGEOM              IFIXGM         OFF         [  0]    ***   
       FOCK                 IFOCK          AO          [  1]    ***   
       FREQ_ALGORI          IVIALG         STANDARD    [  0]    ***   
       FROZEN_CORE          IFROCO         OFF         [  0]    ***   
       GAMMA_ABCD           IGABCD         STORE       [  0]    ***   
       GAMMA_ABCI           IGABCI         STORE       [  0]    ***   
       GENBAS_1             IGNBS1              0               ***   
       GENBAS_2             IGNBS2              0               ***   
       GENBAS_3             IGNBS3              0               ***   
       GENBAS_4             IGNBS4              0               ***   
       GEO_CONV             ICONTL              5              H/bohr 
       GEO_MAXCYC           IOPTCY             50               ***   
       GEO_MAXSTEP          IMXSTP            300            millibohr
       GEO_METHOD           INR            SINGLE_POINT[  5]    ***   
       GIAO                 IGIAO          OFF         [  1]    ***   
       GIMIC                IGIMIC         OFF         [  0]    ***   
       GRID                 IGRID          OFF         [  0]    ***   
       GRID_ALGO            IGALGO         SERIAL      [  0]    ***   
       GUESS                IGUESS         MOREAD      [  0]    ***   
       HBAR                 IHBAR          OFF         [  0]    ***   
       HESS_TYPE            IHESTP         SCF         [  0]    ***   
       HF2_FILE             IHF2Fl         USE         [  1]    ***   
       HFSTABILITY          ISTABL         OFF         [  0]    ***   
       INCORE               INCORE         OFF         [  0]    ***   
       INPUT_MRCC           IMRCC          ON          [  1]    ***   
       INTEGRALS            INTTYP         VMOL        [  1]    ***   
       JODA_PRINT           IJPRNT              0               ***   
       KEYWORD_OUT          IDMPKW         NO          [  0]    ***   
       LINDEP_TOL           ILINDP              8               ***   
       LINEQ_CONV           IZTACN          10D-  7           cycles  
       LINEQ_EXPOR          ILMAXD              5               ***   
       LINEQ_MAXCY          ILMAXC            100               ***   
       LINEQ_TYPE           ILTYPE         DIIS        [  1]    ***   
       LOCK_ORBOCC          ILOCOC         OFF         [  0]    ***   
       MEMORY_SIZE          IMEMSZ         500000000           words  
       MEM_UNIT             IMEMU          INTEGERWORDS[  0]    ***   
       MRCC                 IMRCCC         OFF         [  0]    ***   
       MULTIPLICTY          IMULTP              1               ***   
       NACOUPLING           IVCOUP         OFF         [  0]    ***   
       NEGEVAL              IDIE           ABORT       [  0]    ***   
       NEWNORM              INEWNO         OFF         [  0]    ***   
       NON-HF               INONHF         OFF         [  0]    ***   
       NTOP_TAMP            ITOPT2             15               ***   
       NUC_MODEL            INUCMO         POINT       [  0]    ***   
       OCCUPATION           IOCCU   ESTIMATED BY SCF 
       OPEN-SHELL           IOPEN          SPIN-ORBITAL[  0]    ***   
       OPTVIB               IOPTVB         OFF         [  0]    ***   
       ORBITALS             IORBTP         STANDARD    [  0]    ***   
       PARALLEL             IPARAL         ON          [  1]    ***   
       PARA_INT             IPINTS         ON          [  1]    ***   
       PARA_PRINT           IPPRIN              0               ***   
       PERT_ORB             IPTORB         STANDARD    [  0]    ***   
       POINTS               IGRDFD              0               ***   
       PRINT                IPRNT               0               ***   
       PROPS                IPROPS         OFF         [  0]    ***   
       PROP_INTEGR          IINTYP         INTERNAL    [  0]    ***   
       PSI                  IPSI           OFF         [  0]    ***   
       QC_ALG               IQCALG         FLM         [  0]    ***   
       QC_LINALG            IQCLIN         TRIDIAG     [  2]    ***   
       QC_MAXCYC            IQCMAX          10D-100           cycles  
       QC_MAXSCFCY          IQCMSC          10D- 15           cycles  
       QC_RTRUST            IQCRTR          10D-  0           x 10-3  
       QC_SKIPSCF           IQCSKI         OFF         [  0]    ***   
       QC_START             IQCSTA          10D-  1             ***   
       QRHFGUESS            IQGUES         OFF         [  0]    ***   
       QUARTIC              IQUART         OFF         [  0]    ***   
       RAMAN_INT            IRAMIN         OFF         [  0]    ***   
       RAMAN_ORB            IRAMRE         UNRELAXED   [  0]    ***   
       RDO                  IRDOFM         ON          [  1]    ***   
       REDUCE_REPR          REDREP         Ir          [  0]    ***   
       REFERENCE            IREFNC         RHF         [  0]    ***   
       RELATIVIST           IRELAT         OFF         [  0]    ***   
       RELAX_DENS           IRDENS         ON          [  1]    ***   
       RESET_FLAGS          IRESET         OFF         [  0]    ***   
       RESTART_CC           ICCRES         OFF         [  0]    ***   
       ROT_EVEC             ROTVEC              0               ***   
       SAVE_INTS            ISVINT         OFF         [  0]    ***   
       SCALE_ON             ISTCRT              0               ***   
       SCF_CONV             ISCFCV          10D- 10             ***   
       SCF_DAMPING          IDAMP               0             x 10-3  
       SCF_EXPORDE          IRPPOR              6               ***   
       SCF_EXPSTAR          IRPPLS              8               ***   
       SCF_EXTRAPO          IRPP           ON          [  1]    ***   
       SCF_MAXCYC           ISCFCY            150              cycles 
       SCF_NOSTOP           ISCFST         OFF         [  0]    ***   
       SCF_PRINT            ISCFPR              0               ***   
       SCF_PROG             ISCFPR         SCF         [  0]    ***   
       SD_FIELD             IFINSD              0             x 10-6  
       SOPERT               IPERSO         OFF         [  0]    ***   
       SPHERICAL            IDFGHI         ON          [  1]    ***   
       SPINORBIT            ISOCAL         OFF         [  0]    ***   
       SPINROTATIO          ISRCON         OFF         [  0]    ***   
       SPIN_FLIP            ISPFLP         OFF         [  0]    ***   
       SPIN_ORBIT           ISPORB         OFF         [  0]    ***   
       SPIN_SCAL            ISCSMP         OFF         [  0]    ***   
       STEEPSCALE           ISTPSC              1000          x 10-3  
       SUBGROUP             ISUBGP         DEFAULT     [  0]    ***   
       SUBGRPAXIS           ISBXYZ         X           [  0]    ***   
       SYMMETRY             ISYM           ON          [  0]    ***   
       SYM_CHECK            ISYMCK         OVERRIDE    [  1]    ***   
       T3_EXTRAPOL          IT3EXT         OFF         [  0]    ***   
       T4_EXTRAPOL          IT4EXP         OFF         [  0]    ***   
       TAMP_SUM             IEVERY              5               ***   
       TESTSUITE            ITESTS         OFF         [  0]    ***   
       THERMOCH             ITHERM         OFF         [  0]    ***   
       TOL_CHOLESK          ITOLCH          10D-  4             ***   
       TRANGRAD             IRESRM         OFF         [  0]    ***   
       TRANS_INV            ITRAIN         IGNORE      [  1]    ***   
       TREAT_PERT           ITREAT         SIMULTANEOUS[  0]    ***   
       TRIP_ALGORI          ITRALG         NORMAL      [  0]    ***   
       UIJ_THRESHO          IUIJTH              1               ***   
       UNITS                IUNITS         ANGSTROM    [  0]    ***   
       UNOS                 IUNOS          OFF         [  0]    ***   
       UPDATE_HESS          IHUPDT         ON          [  1]    ***   
       VIBPHASE             ISETPH         STANDARD    [  0]    ***   
       VIBRATION            IVIB           ANALYTIC    [  1]    ***   
       VIB_ALGORIT          IGEALG         STANDARD    [  0]    ***   
       VNATORB              IVNORB         OFF         [  0]    ***   
       VTRAN                IVTRAN         FULL/PARTIAL[  0]    ***   
       XFIELD               IXEFLD              0             x 10-6  
       XFORM_TOL            IXFTOL          10D- 11             ***   
       YFIELD               IYEFLD              0             x 10-6  
       ZFIELD               IZEFLD            200             x 10-6  
       ZSCALE_EXP           IZEXPS         OFF         [  0]    ***   
    -------------------------------------------------------------------
   2 entries found in Z-matrix 
   Job Title : Carbon Monoxide DBOC calculation                                                
   There are  1 unique internal coordinates.
   Of these,  0 will be optimized.
   User supplied Z-matrix: 
--------------------------------------------------------------------------------
       SYMBOL    BOND      LENGTH    ANGLE     ANGLE     DIHED     ANGLE
                  TO      (ANGST)    WRT      (DEG)      WRT      (DEG)
--------------------------------------------------------------------------------
        C    
        O          1         r    
                  *Initial values for internal coordinates* 
                      Name             Value
                        r               1.5517241379
--------------------------------------------------------------------------------
  read isotopes from ZMAT file 
   Rotational constants (in cm-1): 
          0.9723959273             0.9723959273
   Rotational constants (in MHz): 
      29151.7006037753         29151.7006037753
********************************************************************************
   The full molecular point group is CXv .
   The largest Abelian subgroup of the full molecular point group is C2v .
   The computational point group is C2v .
********************************************************************************
--------------------------------------------------------------------------------
   Analysis of internal coordinates specified by Z-matrix 
--------------------------------------------------------------------------------
   *The nuclear repulsion energy is   16.369211626666665 a.u.
   *There is   1 degree of freedom within the tot. symm. molecular subspace.
   *Z-matrix requests optimization of   0 coordinates.
   *The optimization is constrained.
   *The following   1 parameters can have non-zero 
    derivatives within the totally symmetric subspace:
             r    [ 1]
   *The following   0 parameters are to be optimized:

   *The following coordinates must be varied in an  unconstrained optimization.
             r    [ 1]
--------------------------------------------------------------------------------


 ----------------------------------------------------------------
         Coordinates used in calculation (QCOMP) 
 ----------------------------------------------------------------
 Z-matrix   Atomic            Coordinates (in bohr)
  Symbol    Number           X              Y              Z
 ----------------------------------------------------------------
     C         6        -0.00000000     0.00000000     1.75936772
     O         8         0.00000000     0.00000000    -1.17296653
 ----------------------------------------------------------------
 
   Interatomic distance matrix (Angstroms) 
 
                 C             O    
                [ 1]        [ 2]
  C    [ 1]     0.00000
  O    [ 2]     1.55172     0.00000
 rotcon2
   Rotational constants (in cm-1): 
          0.9723959273             0.0000000000
   Rotational constants (in MHz): 
      29151.7006037753             0.0000000000
  ECPDATA file not present.   Using default ECPDATA. 
  @GTFLGS-I, Hessian will be transformed to curvilinear coordinates.
  There are  218 basis functions.
 @CHECKOUT-I, Total execution time (CPU/WALL):        0.19/       0.27 seconds.
--executable xjoda finished with status     0 in        0.30 seconds (walltime).
 --invoking executable--
/nfs/workspaces/public/cfour_mpi/bin/xvmol
 SERIAL VERSION OF MOLECULE STARTED
********************************************************************************
                    INPUT FROM MOL FILE
********************************************************************************
INTGRL        1    0    1    0    0    0    0    0    0                         
         *** CFOUR Program System (Release V0.1) ***                            
Carbon Monoxide DBOC calculation                                                
    2    2 X  Y       0.10E-08              0    0                              
   9999.00      3.00                                                            
          6.00000000    1    5    1    1    1    1    1                         
C #1  -0.000000000000000   0.000000000000000   1.759367722391777                
   16    9                                                                      
   33980.0000000000       9.100000000000000E-005 -1.900000000000000E-005        
  0.000000000000000E+000  0.000000000000000E+000  0.000000000000000E+000        
  0.000000000000000E+000  0.000000000000000E+000  0.000000000000000E+000        
  0.000000000000000E+000                                                        
   5089.00000000000       7.040000000000000E-004 -1.510000000000000E-004        
  0.000000000000000E+000  0.000000000000000E+000  0.000000000000000E+000        
  0.000000000000000E+000  0.000000000000000E+000  0.000000000000000E+000        
  0.000000000000000E+000                                                        
   1157.00000000000       3.693000000000000E-003 -7.850000000000000E-004        
  0.000000000000000E+000  0.000000000000000E+000  0.000000000000000E+000        
  0.000000000000000E+000  0.000000000000000E+000  0.000000000000000E+000        
  0.000000000000000E+000                                                        
   326.600000000000       1.536000000000000E-002 -3.324000000000000E-003        
  0.000000000000000E+000  0.000000000000000E+000  0.000000000000000E+000        
  0.000000000000000E+000  0.000000000000000E+000  0.000000000000000E+000        
  0.000000000000000E+000                                                        
   106.100000000000       5.292900000000000E-002 -1.151200000000000E-002        
  0.000000000000000E+000  0.000000000000000E+000  0.000000000000000E+000        
  0.000000000000000E+000  0.000000000000000E+000  0.000000000000000E+000        
  0.000000000000000E+000                                                        
   38.1100000000000       0.147043000000000      -3.416000000000000E-002        
  0.000000000000000E+000  0.000000000000000E+000  0.000000000000000E+000        
  0.000000000000000E+000  0.000000000000000E+000  0.000000000000000E+000        
  0.000000000000000E+000                                                        
   14.7500000000000       0.305631000000000      -7.717300000000001E-002        
  0.000000000000000E+000  0.000000000000000E+000  0.000000000000000E+000        
  0.000000000000000E+000  0.000000000000000E+000  0.000000000000000E+000        
  0.000000000000000E+000                                                        
   6.03500000000000       0.399345000000000      -0.141493000000000             
  0.000000000000000E+000  0.000000000000000E+000  0.000000000000000E+000        
  0.000000000000000E+000  0.000000000000000E+000  0.000000000000000E+000        
  0.000000000000000E+000                                                        
   2.53000000000000       0.217051000000000      -0.118019000000000             
  0.000000000000000E+000  0.000000000000000E+000  0.000000000000000E+000        
  0.000000000000000E+000  0.000000000000000E+000  0.000000000000000E+000        
  0.000000000000000E+000                                                        
  0.735500000000000       1.589400000000000E-002  0.273806000000000             
   1.00000000000000       0.000000000000000E+000  0.000000000000000E+000        
  0.000000000000000E+000  0.000000000000000E+000  0.000000000000000E+000        
  0.000000000000000E+000                                                        
  0.290500000000000      -3.084000000000000E-003  0.586510000000000             
  0.000000000000000E+000   1.00000000000000       0.000000000000000E+000        
  0.000000000000000E+000  0.000000000000000E+000  0.000000000000000E+000        
  0.000000000000000E+000                                                        
  0.111100000000000       9.779999999999999E-004  0.285430000000000             
  0.000000000000000E+000  0.000000000000000E+000   1.00000000000000             
  0.000000000000000E+000  0.000000000000000E+000  0.000000000000000E+000        
  0.000000000000000E+000                                                        
   7.21600000000000       0.000000000000000E+000  0.000000000000000E+000        
  0.000000000000000E+000  0.000000000000000E+000  0.000000000000000E+000        
   1.00000000000000       0.000000000000000E+000  0.000000000000000E+000        
  0.000000000000000E+000                                                        
   19.5700000000000       0.000000000000000E+000  0.000000000000000E+000        
  0.000000000000000E+000  0.000000000000000E+000  0.000000000000000E+000        
  0.000000000000000E+000   1.00000000000000       0.000000000000000E+000        
  0.000000000000000E+000                                                        
   53.0730000000000       0.000000000000000E+000  0.000000000000000E+000        
  0.000000000000000E+000  0.000000000000000E+000  0.000000000000000E+000        
  0.000000000000000E+000  0.000000000000000E+000   1.00000000000000             
  0.000000000000000E+000                                                        
  4.145000000000000E-002  0.000000000000000E+000  0.000000000000000E+000        
  0.000000000000000E+000  0.000000000000000E+000  0.000000000000000E+000        
  0.000000000000000E+000  0.000000000000000E+000  0.000000000000000E+000        
   1.00000000000000                                                             
   10    8                                                                      
   34.5100000000000       5.378000000000000E-003  0.000000000000000E+000        
  0.000000000000000E+000  0.000000000000000E+000  0.000000000000000E+000        
  0.000000000000000E+000  0.000000000000000E+000  0.000000000000000E+000        
   7.91500000000000       3.613200000000000E-002  0.000000000000000E+000        
  0.000000000000000E+000  0.000000000000000E+000  0.000000000000000E+000        
  0.000000000000000E+000  0.000000000000000E+000  0.000000000000000E+000        
   2.36800000000000       0.142493000000000       0.000000000000000E+000        
  0.000000000000000E+000  0.000000000000000E+000  0.000000000000000E+000        
  0.000000000000000E+000  0.000000000000000E+000  0.000000000000000E+000        
  0.813200000000000       0.342150000000000        1.00000000000000             
  0.000000000000000E+000  0.000000000000000E+000  0.000000000000000E+000        
  0.000000000000000E+000  0.000000000000000E+000  0.000000000000000E+000        
  0.289000000000000       0.463864000000000       0.000000000000000E+000        
   1.00000000000000       0.000000000000000E+000  0.000000000000000E+000        
  0.000000000000000E+000  0.000000000000000E+000  0.000000000000000E+000        
  0.100700000000000       0.250028000000000       0.000000000000000E+000        
  0.000000000000000E+000   1.00000000000000       0.000000000000000E+000        
  0.000000000000000E+000  0.000000000000000E+000  0.000000000000000E+000        
   8.18200000000000       0.000000000000000E+000  0.000000000000000E+000        
  0.000000000000000E+000  0.000000000000000E+000   1.00000000000000             
  0.000000000000000E+000  0.000000000000000E+000  0.000000000000000E+000        
   24.1860000000000       0.000000000000000E+000  0.000000000000000E+000        
  0.000000000000000E+000  0.000000000000000E+000  0.000000000000000E+000        
   1.00000000000000       0.000000000000000E+000  0.000000000000000E+000        
   71.4940000000000       0.000000000000000E+000  0.000000000000000E+000        
  0.000000000000000E+000  0.000000000000000E+000  0.000000000000000E+000        
  0.000000000000000E+000   1.00000000000000       0.000000000000000E+000        
  3.218000000000000E-002  0.000000000000000E+000  0.000000000000000E+000        
  0.000000000000000E+000  0.000000000000000E+000  0.000000000000000E+000        
  0.000000000000000E+000  0.000000000000000E+000   1.00000000000000             
    6    6                                                                      
   1.84800000000000        1.00000000000000       0.000000000000000E+000        
  0.000000000000000E+000  0.000000000000000E+000  0.000000000000000E+000        
  0.000000000000000E+000                                                        
  0.649000000000000       0.000000000000000E+000   1.00000000000000             
  0.000000000000000E+000  0.000000000000000E+000  0.000000000000000E+000        
  0.000000000000000E+000                                                        
  0.228000000000000       0.000000000000000E+000  0.000000000000000E+000        
   1.00000000000000       0.000000000000000E+000  0.000000000000000E+000        
  0.000000000000000E+000                                                        
   8.65600000000000       0.000000000000000E+000  0.000000000000000E+000        
  0.000000000000000E+000   1.00000000000000       0.000000000000000E+000        
  0.000000000000000E+000                                                        
   33.2130000000000       0.000000000000000E+000  0.000000000000000E+000        
  0.000000000000000E+000  0.000000000000000E+000   1.00000000000000             
  0.000000000000000E+000                                                        
  7.660000000000000E-002  0.000000000000000E+000  0.000000000000000E+000        
  0.000000000000000E+000  0.000000000000000E+000  0.000000000000000E+000        
   1.00000000000000                                                             
    4    4                                                                      
   1.41900000000000        1.00000000000000       0.000000000000000E+000        
  0.000000000000000E+000  0.000000000000000E+000                                
  0.485000000000000       0.000000000000000E+000   1.00000000000000             
  0.000000000000000E+000  0.000000000000000E+000                                
   24.6940000000000       0.000000000000000E+000  0.000000000000000E+000        
   1.00000000000000       0.000000000000000E+000                                
  0.187000000000000       0.000000000000000E+000  0.000000000000000E+000        
  0.000000000000000E+000   1.00000000000000                                     
    2    2                                                                      
   1.01100000000000        1.00000000000000       0.000000000000000E+000        
  0.424000000000000       0.000000000000000E+000   1.00000000000000             
          8.00000000    1    5    1    1    1    1    1                         
O #2   0.000000000000000   0.000000000000000  -1.172966533816654                
   16    9                                                                      
   61420.0000000000       9.000000000000001E-005 -2.000000000000000E-005        
  0.000000000000000E+000  0.000000000000000E+000  0.000000000000000E+000        
  0.000000000000000E+000  0.000000000000000E+000  0.000000000000000E+000        
  0.000000000000000E+000                                                        
   9199.00000000000       6.980000000000001E-004 -1.590000000000000E-004        
  0.000000000000000E+000  0.000000000000000E+000  0.000000000000000E+000        
  0.000000000000000E+000  0.000000000000000E+000  0.000000000000000E+000        
  0.000000000000000E+000                                                        
   2091.00000000000       3.664000000000000E-003 -8.290000000000000E-004        
  0.000000000000000E+000  0.000000000000000E+000  0.000000000000000E+000        
  0.000000000000000E+000  0.000000000000000E+000  0.000000000000000E+000        
  0.000000000000000E+000                                                        
   590.900000000000       1.521800000000000E-002 -3.508000000000000E-003        
  0.000000000000000E+000  0.000000000000000E+000  0.000000000000000E+000        
  0.000000000000000E+000  0.000000000000000E+000  0.000000000000000E+000        
  0.000000000000000E+000                                                        
   192.300000000000       5.242300000000000E-002 -1.215600000000000E-002        
  0.000000000000000E+000  0.000000000000000E+000  0.000000000000000E+000        
  0.000000000000000E+000  0.000000000000000E+000  0.000000000000000E+000        
  0.000000000000000E+000                                                        
   69.3200000000000       0.145921000000000      -3.626100000000000E-002        
  0.000000000000000E+000  0.000000000000000E+000  0.000000000000000E+000        
  0.000000000000000E+000  0.000000000000000E+000  0.000000000000000E+000        
  0.000000000000000E+000                                                        
   26.9700000000000       0.305258000000000      -8.299200000000000E-002        
  0.000000000000000E+000  0.000000000000000E+000  0.000000000000000E+000        
  0.000000000000000E+000  0.000000000000000E+000  0.000000000000000E+000        
  0.000000000000000E+000                                                        
   11.1000000000000       0.398508000000000      -0.152090000000000             
  0.000000000000000E+000  0.000000000000000E+000  0.000000000000000E+000        
  0.000000000000000E+000  0.000000000000000E+000  0.000000000000000E+000        
  0.000000000000000E+000                                                        
   4.68200000000000       0.216980000000000      -0.115331000000000             
  0.000000000000000E+000  0.000000000000000E+000  0.000000000000000E+000        
  0.000000000000000E+000  0.000000000000000E+000  0.000000000000000E+000        
  0.000000000000000E+000                                                        
   1.42800000000000       1.759400000000000E-002  0.288979000000000             
   1.00000000000000       0.000000000000000E+000  0.000000000000000E+000        
  0.000000000000000E+000  0.000000000000000E+000  0.000000000000000E+000        
  0.000000000000000E+000                                                        
  0.554700000000000      -2.502000000000000E-003  0.586128000000000             
  0.000000000000000E+000   1.00000000000000       0.000000000000000E+000        
  0.000000000000000E+000  0.000000000000000E+000  0.000000000000000E+000        
  0.000000000000000E+000                                                        
  0.206700000000000       9.540000000000000E-004  0.277624000000000             
  0.000000000000000E+000  0.000000000000000E+000   1.00000000000000             
  0.000000000000000E+000  0.000000000000000E+000  0.000000000000000E+000        
  0.000000000000000E+000                                                        
   12.9740000000000       0.000000000000000E+000  0.000000000000000E+000        
  0.000000000000000E+000  0.000000000000000E+000  0.000000000000000E+000        
   1.00000000000000       0.000000000000000E+000  0.000000000000000E+000        
  0.000000000000000E+000                                                        
   34.9000000000000       0.000000000000000E+000  0.000000000000000E+000        
  0.000000000000000E+000  0.000000000000000E+000  0.000000000000000E+000        
  0.000000000000000E+000   1.00000000000000       0.000000000000000E+000        
  0.000000000000000E+000                                                        
   93.8810000000000       0.000000000000000E+000  0.000000000000000E+000        
  0.000000000000000E+000  0.000000000000000E+000  0.000000000000000E+000        
  0.000000000000000E+000  0.000000000000000E+000   1.00000000000000             
  0.000000000000000E+000                                                        
  6.959000000000000E-002  0.000000000000000E+000  0.000000000000000E+000        
  0.000000000000000E+000  0.000000000000000E+000  0.000000000000000E+000        
  0.000000000000000E+000  0.000000000000000E+000  0.000000000000000E+000        
   1.00000000000000                                                             
   10    8                                                                      
   63.4200000000000       6.044000000000000E-003  0.000000000000000E+000        
  0.000000000000000E+000  0.000000000000000E+000  0.000000000000000E+000        
  0.000000000000000E+000  0.000000000000000E+000  0.000000000000000E+000        
   14.6600000000000       4.179900000000000E-002  0.000000000000000E+000        
  0.000000000000000E+000  0.000000000000000E+000  0.000000000000000E+000        
  0.000000000000000E+000  0.000000000000000E+000  0.000000000000000E+000        
   4.45900000000000       0.161143000000000       0.000000000000000E+000        
  0.000000000000000E+000  0.000000000000000E+000  0.000000000000000E+000        
  0.000000000000000E+000  0.000000000000000E+000  0.000000000000000E+000        
   1.53100000000000       0.356731000000000        1.00000000000000             
  0.000000000000000E+000  0.000000000000000E+000  0.000000000000000E+000        
  0.000000000000000E+000  0.000000000000000E+000  0.000000000000000E+000        
  0.530200000000000       0.448309000000000       0.000000000000000E+000        
   1.00000000000000       0.000000000000000E+000  0.000000000000000E+000        
  0.000000000000000E+000  0.000000000000000E+000  0.000000000000000E+000        
  0.175000000000000       0.244940000000000       0.000000000000000E+000        
  0.000000000000000E+000   1.00000000000000       0.000000000000000E+000        
  0.000000000000000E+000  0.000000000000000E+000  0.000000000000000E+000        
   14.4750000000000       0.000000000000000E+000  0.000000000000000E+000        
  0.000000000000000E+000  0.000000000000000E+000   1.00000000000000             
  0.000000000000000E+000  0.000000000000000E+000  0.000000000000000E+000        
   42.7300000000000       0.000000000000000E+000  0.000000000000000E+000        
  0.000000000000000E+000  0.000000000000000E+000  0.000000000000000E+000        
   1.00000000000000       0.000000000000000E+000  0.000000000000000E+000        
   126.140000000000       0.000000000000000E+000  0.000000000000000E+000        
  0.000000000000000E+000  0.000000000000000E+000  0.000000000000000E+000        
  0.000000000000000E+000   1.00000000000000       0.000000000000000E+000        
  5.348000000000000E-002  0.000000000000000E+000  0.000000000000000E+000        
  0.000000000000000E+000  0.000000000000000E+000  0.000000000000000E+000        
  0.000000000000000E+000  0.000000000000000E+000   1.00000000000000             
    6    6                                                                      
   3.77500000000000        1.00000000000000       0.000000000000000E+000        
  0.000000000000000E+000  0.000000000000000E+000  0.000000000000000E+000        
  0.000000000000000E+000                                                        
   1.30000000000000       0.000000000000000E+000   1.00000000000000             
  0.000000000000000E+000  0.000000000000000E+000  0.000000000000000E+000        
  0.000000000000000E+000                                                        
  0.444000000000000       0.000000000000000E+000  0.000000000000000E+000        
   1.00000000000000       0.000000000000000E+000  0.000000000000000E+000        
  0.000000000000000E+000                                                        
   14.9270000000000       0.000000000000000E+000  0.000000000000000E+000        
  0.000000000000000E+000   1.00000000000000       0.000000000000000E+000        
  0.000000000000000E+000                                                        
   57.5440000000000       0.000000000000000E+000  0.000000000000000E+000        
  0.000000000000000E+000  0.000000000000000E+000   1.00000000000000             
  0.000000000000000E+000                                                        
  0.154000000000000       0.000000000000000E+000  0.000000000000000E+000        
  0.000000000000000E+000  0.000000000000000E+000  0.000000000000000E+000        
   1.00000000000000                                                             
    4    4                                                                      
   2.66600000000000        1.00000000000000       0.000000000000000E+000        
  0.000000000000000E+000  0.000000000000000E+000                                
  0.859000000000000       0.000000000000000E+000   1.00000000000000             
  0.000000000000000E+000  0.000000000000000E+000                                
   26.4830000000000       0.000000000000000E+000  0.000000000000000E+000        
   1.00000000000000       0.000000000000000E+000                                
  0.324000000000000       0.000000000000000E+000  0.000000000000000E+000        
  0.000000000000000E+000   1.00000000000000                                     
    2    2                                                                      
   1.84600000000000        1.00000000000000       0.000000000000000E+000        
  0.714000000000000       0.000000000000000E+000   1.00000000000000             
FINISH                                                                          
 
********************************************************************************
 ONE- AND TWO-ELECTRON INTEGRALS OVER SYMMETRY-ADAPTED AOS ARE CALCULATED.

  SPHERICAL HARMONICS ARE USED.
  
  INTEGRALS LESS THAN  0.10E-13 ARE NEGLECTED.

  NUCLEAR REPULSION ENERGY :   16.3692116267 A.U.
  @MOLECU-I, ONE ELECTRON INTEGRALS (CPU/WALL):        0.08/       0.10 SECONDS.
  @TWOEL-I,    4451196 INTEGRALS OF SYMMETRY TYPE  I I I I
  @TWOEL-I,   19201920 INTEGRALS OF SYMMETRY TYPE  I J I J
  @TWOEL-I,   10110608 INTEGRALS OF SYMMETRY TYPE  I I J J
  @TWOEL-I,   14196508 INTEGRALS OF SYMMETRY TYPE  I J K L
  @TWOEL-I, TOTAL NUMBER OF 2-E INTEGRALS   47960232.
  @MOLECU-I, TWO ELECTRON INTEGRALS (CPU/WALL):      224.25/      30.35 SECONDS.
 @CHECKOUT-I, Total execution time (CPU/WALL):      224.34/      30.46 seconds.

Running with 14 threads/proc

--executable xvmol finished with status     0 in       30.50 seconds (walltime).
 --invoking executable--
/nfs/workspaces/public/cfour_mpi/bin/xvmol2ja
 @GETMEM-I,  Allocated    3814 MB of main memory.
 @CHECKOUT-I, Total execution time (CPU/WALL):        0.26/       0.06 seconds.
--executable xvmol2ja finished with status     0 in        0.10 seconds (walltime).
 --invoking executable--
/nfs/workspaces/public/cfour_mpi/bin/xvprop
 @GETMEM-I,  Allocated    3814 MB of main memory.
   Property integrals will be calculated.
    --------------------------------------------------------------
                                   Property evaluated at 
    Property type                X             Y             Z
    --------------------------------------------------------------
    Dipole moment               ----          ----          ----  
    Quadrupole moment           ----          ----          ----  
    Octopole moment             ----          ----          ----  
    Relativisitic corr.         ----          ----          ----  
    Second moment            0.0000000     0.0000000     0.0000000
    Electron density         0.0000000     0.0000000     1.7593677
    Electron density         0.0000000     0.0000000    -1.1729665
    Field gradient           0.0000000     0.0000000     1.7593677
    Field gradient           0.0000000     0.0000000    -1.1729665
    Potential                0.0000000     0.0000000     1.7593677
    Potential                0.0000000     0.0000000    -1.1729665
    --------------------------------------------------------------
 @CHECKOUT-I, Total execution time (CPU/WALL):        1.34/       1.40 seconds.
--executable xvprop finished with status     0 in        1.43 seconds (walltime).
 --invoking executable--
/nfs/workspaces/public/cfour_mpi/bin/xvscf
  There are  218 functions in the AO basis.

  There are 4 irreducible representations.

       Irrep        # of functions
         1                 86
         2                 52
         3                 52
         4                 28


  Parameters for SCF calculation: 
        SCF reference function:  RHF  
  Maximum number of iterations:  150
     Full symmetry point group: CXv 
     Computational point group: C2v 
        Initial density matrix: MOREAD                 
     SCF convergence tolerance: 10**(-10)
  DIIS convergence acceleration:  ON
          Latest start for DIIS:   8
                     DIIS order:   6

  Memory information:    2523578 words required.
  Fock matrices are constructed from AO integral file.
 @GETMEM-I,  Allocated      19 MB of main memory.
  Initialization and symmetry analysis required      0.001 seconds.

  Adding electric field perturbation to one-electron Hamiltonian.
  Field direction     : Z
  Field strength      :  0.0002000 a.u.

  @INITGES-I, Occupancies from core Hamiltonian:

          Alpha population by irrep:   5    1    1    0
           Beta population by irrep:   5    1    1    0


 total no. of electrons in initial guess :  0.000000000000000E+000
  --------------------------------------------------------------------
  Iteration         Total Energy            Largest Density Difference
  --------------------------------------------------------------------
       0            16.368977131854493              0.0000000000D+00
   current occupation vector 
     5  1  1  0
     5  1  1  0
       1           -93.520774237628885              0.1754117280D+02
   current occupation vector 
     5  1  1  0
     5  1  1  0
       2           -98.111486219858506              0.1754115106D+02
   current occupation vector 
     5  1  1  0
     5  1  1  0
       3          -100.811966582958846              0.6448731376D+01
   current occupation vector 
     5  1  1  0
     5  1  1  0
       4           -95.818141408138700              0.6442320323D+01
   current occupation vector 
     5  1  1  0
     5  1  1  0
       5          -100.480522419084792              0.6892911489D+01
   current occupation vector 
     5  1  1  0
     5  1  1  0
       6           -95.446539662006870              0.6893525658D+01
   current occupation vector 
     5  1  1  0
     5  1  1  0
       7          -100.463260971141665              0.6921247235D+01
   current occupation vector 
     5  1  1  0
     5  1  1  0
       8           -95.433737625926156              0.6921315497D+01
   current occupation vector 
     5  1  1  0
     5  1  1  0
       9          -107.496771163892717              0.5698471108D+01
   current occupation vector 
     5  1  1  0
     5  1  1  0
      10          -110.203626525418187              0.1242702894D+01
   current occupation vector 
     5  1  1  0
     5  1  1  0
      11          -112.387079951717411              0.1202361529D+01
   current occupation vector 
     5  1  1  0
     5  1  1  0
      12          -112.551394082917071              0.4799147878D+00
   current occupation vector 
     5  1  1  0
     5  1  1  0
      13          -112.560318048403289              0.1271241681D+00
   current occupation vector 
     5  1  1  0
     5  1  1  0
      14          -112.563264234567484              0.6804871200D-01
   current occupation vector 
     5  1  1  0
     5  1  1  0
      15          -112.563467533986156              0.1779660697D-01
   current occupation vector 
     5  1  1  0
     5  1  1  0
      16          -112.563606400937132              0.2065761298D-01
   current occupation vector 
     5  1  1  0
     5  1  1  0
      17          -112.563655338345697              0.1457117996D-01
   current occupation vector 
     5  1  1  0
     5  1  1  0
      18          -112.563664023340934              0.7912470192D-02
   current occupation vector 
     5  1  1  0
     5  1  1  0
      19          -112.563664093293099              0.6836796478D-03
   current occupation vector 
     5  1  1  0
     5  1  1  0
      20          -112.563664093896918              0.2227776220D-04
   current occupation vector 
     5  1  1  0
     5  1  1  0
      21          -112.563664093943672              0.9036736219D-05
   current occupation vector 
     5  1  1  0
     5  1  1  0
      22          -112.563664093945548              0.1299030431D-05
   current occupation vector 
     5  1  1  0
     5  1  1  0
      23          -112.563664093945746              0.2405836554D-06
   current occupation vector 
     5  1  1  0
     5  1  1  0
      24          -112.563664093945150              0.5444307472D-07
   current occupation vector 
     5  1  1  0
     5  1  1  0
      25          -112.563664093943871              0.3699824602D-07
   current occupation vector 
     5  1  1  0
     5  1  1  0
      26          -112.563664093945690              0.2398157406D-07
   current occupation vector 
     5  1  1  0
     5  1  1  0
      27          -112.563664093946258              0.1596930854D-07
   current occupation vector 
     5  1  1  0
     5  1  1  0
      28          -112.563664093945377              0.1270117345D-08
   current occupation vector 
     5  1  1  0
     5  1  1  0
      29          -112.563664093945889              0.1661502047D-09
   current occupation vector 
     5  1  1  0
     5  1  1  0
      30          -112.563664093943700              0.1683080342D-09
   current occupation vector 
     5  1  1  0
     5  1  1  0

  SCF has converged.

 Density matrix saved to file den.dat
 total electron number:   14.0000000000003     
     E(SCF)=      -112.563664093946258              0.3089573042D-10

  Eigenvector printing suppressed.

 @PUTMOS-I, Writing converged MOs to NEWMOS. 
 @PUTMOS-I, Symmetry   1 Full Blocks 21 Partial Blocksize   2
 @PUTMOS-I, Symmetry   2 Full Blocks 13 Partial Blocksize   0
 @PUTMOS-I, Symmetry   3 Full Blocks 13 Partial Blocksize   0
 @PUTMOS-I, Symmetry   4 Full Blocks  7 Partial Blocksize   0
 @PUTFOCK-I, Writing converged Fock matrix to NEWFOCK. 
 @PUTFOCK-I, Symmetry   1 Full Blocks 21 Partial Blocksize   2
 @PUTFOCK-I, Symmetry   2 Full Blocks 13 Partial Blocksize   0
 @PUTFOCK-I, Symmetry   3 Full Blocks 13 Partial Blocksize   0
 @PUTFOCK-I, Symmetry   4 Full Blocks  7 Partial Blocksize   0


 
  ORBITAL EIGENVALUES (ALPHA)  (1H = 27.2113834 eV)

       MO #        E(hartree)               E(eV)           FULLSYM    COMPSYM
       ----   --------------------   --------------------   -------   ---------
    1     1         -20.6497020607        -561.9069598698     SG+        A1 (1)
    2     2         -11.5120228240        -313.2580667726     SG+        A1 (1)
    3     3          -1.2944586951         -35.2240118474     SG+        A1 (1)
    4     4          -0.8013371162         -21.8054915027     SG+        A1 (1)
    5     5          -0.5402398083         -14.7006725528     SG+        A1 (1)
    6   139          -0.5067488410         -13.7893369990      PI        B2 (3)
    7    87          -0.5067488410         -13.7893369990      PI        B1 (2)
  +++++++++++++++++++++++++++++++++++++++++++++++++++++++++++++++++++++++++++++
    8   140           0.0023613071           0.0642544340      PI        B2 (3)
    9    88           0.0023613071           0.0642544340      PI        B1 (2)
   10     6           0.0621369487           1.6908323339     SG+        A1 (1)
   11     7           0.0683092567           1.8587893748     SG+        A1 (1)
   12   141           0.0833572914           2.2682672165      PI        B2 (3)
   13    89           0.0833572914           2.2682672165      PI        B1 (2)
   14     8           0.1567057513           4.2641802795     SG+        A1 (1)
   15   142           0.1776822241           4.8349791246      PI        B2 (3)
   16    90           0.1776822241           4.8349791246      PI        B1 (2)
   17     9           0.2080164505           5.6604153879     SG+        A1 (1)
   18   191           0.2231707873           6.0727858580      DE        A2 (4)
   19    10           0.2231707873           6.0727858580      DE        A1 (1)
   20   143           0.2881987799           7.8422874960      PI        B2 (3)
   21    91           0.2881987799           7.8422874960      PI        B1 (2)
   22    11           0.3005481195           8.1783301097     SG+        A1 (1)
   23    12           0.3255747084           8.8593382152     SG+        A1 (1)
   24   144           0.4038529667          10.9893979131      PI        B2 (3)
   25    92           0.4038529667          10.9893979131      PI        B1 (2)
   26    13           0.4288287261          11.6690228788     SG+        A1 (1)
   27    14           0.5127824936          13.9535210335     SG+        A1 (1)
   28    15           0.5493829433          14.9494699031      DE        A1 (1)
   29   192           0.5493829433          14.9494699031      DE        A2 (4)
   30   145           0.6230138043          16.9530674921      PI        B2 (3)
   31    93           0.6230138043          16.9530674921      PI        B1 (2)
   32    16           0.7091391888          19.2966583502     SG+        A1 (1)
   33    94           0.7338902131          19.9701679633      PH        B1 (2)
   34   146           0.7338902131          19.9701679633      PH        B2 (3)
   35   193           0.7418800559          20.1875826391      DE        A2 (4)
   36    17           0.7418800559          20.1875826391      DE        A1 (1)
   37   147           0.7798882311          21.2218376643      PI        B2 (3)
   38    95           0.7798882311          21.2218376643      PI        B1 (2)
   39    18           0.8224335807          22.3795554855     SG+        A1 (1)
   40    19           0.8630484293          23.4847417023      DE        A1 (1)
   41   194           0.8630484293          23.4847417023      DE        A2 (4)
   42    20           0.8788942343          23.9159279782     SG+        A1 (1)
   43   148           0.8894034769          24.2018990078      PI        B2 (3)
   44    96           0.8894034769          24.2018990078      PI        B1 (2)
   45   149           1.0366732780          28.2093140292      PI        B2 (3)
   46    97           1.0366732780          28.2093140292      PI        B1 (2)
   47    21           1.1300904931          30.7513256851     SG+        A1 (1)
   48    22           1.3701255869          37.2830126506     SG+        A1 (1)
   49   150           1.4221234324          38.6979459602      PH        B2 (3)
   50    98           1.4221234324          38.6979459602      PH        B1 (2)
   51    99           1.5031755117          40.9034851674      PI        B1 (2)
   52   151           1.5031755117          40.9034851674      PI        B2 (3)
   53    23           1.5814610043          43.0337417191      DE        A1 (1)
   54   195           1.5814610043          43.0337417191      DE        A2 (4)
   55    24           1.5984495832          43.4960244533     SG+        A1 (1)
   56   100           1.6378830345          44.5690632172      PI        B1 (2)
   57   152           1.6378830345          44.5690632172      PI        B2 (3)
   58    25           1.6849984141          45.8511378747      DE        A1 (1)
   59   196           1.6849984141          45.8511378747      DE        A2 (4)
   60    26           1.9159339672          52.1352137492     SG+        A1 (1)
   61    27           1.9667262850          53.5173429842     SG+        A1 (1)
   62   197           2.0716908845          56.3735749440      PI        A2 (4)
   63    28           2.0716908845          56.3735749440      PI        A1 (1)
   64   153           2.0814844347          56.6400709928      PI        B2 (3)
   65   101           2.0814844347          56.6400709929      PI        B1 (2)
   66   198           2.1308391636          57.9830814446      DE        A2 (4)
   67    29           2.1308391636          57.9830814446      DE        A1 (1)
   68   154           2.2094335960          60.1217446788      PH        B2 (3)
   69   102           2.2094335960          60.1217446788      PH        B1 (2)
   70   155           2.2206655366          60.4273813204      PH        B2 (3)
   71   103           2.2206655366          60.4273813204      PH        B1 (2)
   72    30           2.2285651389          60.6423404274     SG+        A1 (1)
   73   156           2.2318064085          60.7305398561      PI        B2 (3)
   74   104           2.2318064085          60.7305398561      PI        B1 (2)
   75   199           2.2904226121          62.3255678454      DE        A2 (4)
   76    31           2.2904226121          62.3255678454      DE        A1 (1)
   77    32           2.4182202608          65.8031186614     SG+        A1 (1)
   78   157           2.5163057534          68.4721606064      PI        B2 (3)
   79   105           2.5163057534          68.4721606064      PI        B1 (2)
   80   106           2.5939574445          70.5851705462      PI        B1 (2)
   81   158           2.5939574445          70.5851705462      PI        B2 (3)
   82    33           2.6216825357          71.3396086310     SG+        A1 (1)
   83    34           2.6669242153          72.5706973200      DE        A1 (1)
   84   200           2.6669242153          72.5706973200      DE        A2 (4)
   85    35           2.9853610654          81.2358045380     SG+        A1 (1)
   86   107           3.4268748560          93.2500055694      PI        B1 (2)
   87   159           3.4268748560          93.2500055694      PI        B2 (3)
   88   201           3.7062940050         100.8533871621      PI        A2 (4)
   89    36           3.7062940050         100.8533871621      PI        A1 (1)
   90    37           3.9018880140         106.1757707328     SG+        A1 (1)
   91   160           3.9334276769         107.0340085927      PH        B2 (3)
   92   108           3.9334276769         107.0340085927      PH        B1 (2)
   93   161           4.1356745940         112.5374269944      PH        B2 (3)
   94   109           4.1356745940         112.5374269944      PH        B1 (2)
   95    38           4.1454297495         112.8028782714     SG+        A1 (1)
   96   110           4.1584442784         113.1570216062      PI        B1 (2)
   97   162           4.1584442784         113.1570216062      PI        B2 (3)
   98    39           4.1944444950         114.1366373048      DE        A1 (1)
   99   202           4.1944444950         114.1366373048      DE        A2 (4)
  100    40           4.2865811382         116.6438028267      DE        A1 (1)
  101   203           4.2865811382         116.6438028268      DE        A2 (4)
  102    41           4.4267856110         120.4589604910     SG+        A1 (1)
  103   111           4.5607009532         124.1029822108      PI        B1 (2)
  104   163           4.5607009532         124.1029822108      PI        B2 (3)
  105   204           4.7120487969         128.2213664112      DE        A2 (4)
  106    42           4.7120487969         128.2213664112      DE        A1 (1)
  107    43           4.7547689686         129.3838413836     SG+        A1 (1)
  108   112           5.1790758499         140.9298186082      PI        B1 (2)
  109   164           5.1790758499         140.9298186083      PI        B2 (3)
  110    44           5.2711118795         143.4342462960     SG+        A1 (1)
  111   165           5.3443278820         145.4265550112      PI        B2 (3)
  112   113           5.3443278820         145.4265550112      PI        B1 (2)
  113    45           5.8332223089         158.7300487036      PI        A1 (1)
  114   205           5.8332223089         158.7300487036      PI        A2 (4)
  115   166           5.9068507902         160.7335815398      PH        B2 (3)
  116   114           5.9068507902         160.7335815398      PH        B1 (2)
  117    46           6.0610700146         164.9300999805     SG+        A1 (1)
  118    47           6.1190509433         166.5078412617      DE        A1 (1)
  119   206           6.1190509433         166.5078412617      DE        A2 (4)
  120   167           6.1417162378         167.1245952800      PI        B2 (3)
  121   115           6.1417162378         167.1245952800      PI        B1 (2)
  122    48           6.1978350948         168.6516670159     SG+        A1 (1)
  123   207           6.3442033771         172.6345504624      DE        A2 (4)
  124    49           6.3442033771         172.6345504624      DE        A1 (1)
  125   168           6.3608920278         173.0886717350      PH        B2 (3)
  126   116           6.3608920278         173.0886717350      PH        B1 (2)
  127   208           6.4954153185         176.7492365732      DE        A2 (4)
  128    50           6.4954153185         176.7492365732      DE        A1 (1)
  129   117           6.8170829357         185.5022574320      PI        B1 (2)
  130   169           6.8170829357         185.5022574320      PI        B2 (3)
  131    51           7.1125768258         193.5430549679     SG+        A1 (1)
  132   118           7.3279081313         199.4025176821      PI        B1 (2)
  133   170           7.3279081313         199.4025176821      PI        B2 (3)
  134    52           7.9225897077         215.5846260570     SG+        A1 (1)
  135    53           9.6022078433         261.2893591115     SG+        A1 (1)
  136   171           9.7732823874         265.9445341211      PI        B2 (3)
  137   119           9.7732823874         265.9445341212      PI        B1 (2)
  138   209          10.6493993662         289.7848891323      PI        A2 (4)
  139    54          10.6493993662         289.7848891323      PI        A1 (1)
  140    55          10.6898067977         290.8844312440     SG+        A1 (1)
  141   120          10.7411983883         292.2828675198      PH        B1 (2)
  142   172          10.7411983883         292.2828675198      PH        B2 (3)
  143   210          10.9709723578         298.5353350998      DE        A2 (4)
  144    56          10.9709723578         298.5353350998      DE        A1 (1)
  145   121          10.9776416719         298.7168163621      PI        B1 (2)
  146   173          10.9776416719         298.7168163621      PI        B2 (3)
  147    57          11.1728654809         304.0291262774     SG+        A1 (1)
  148   174          11.8872934983         323.4697009693      PH        B2 (3)
  149   122          11.8872934983         323.4697009694      PH        B1 (2)
  150    58          11.9999433495         326.5350592610      DE        A1 (1)
  151   211          11.9999433495         326.5350592614      DE        A2 (4)
  152   123          12.4019547157         337.4743446794      PI        B1 (2)
  153   175          12.4019547157         337.4743446794      PI        B2 (3)
  154    59          12.6320260979         343.7349052697     SG+        A1 (1)
  155    60          12.7318008404         346.4499140406      DE        A1 (1)
  156   212          12.7318008404         346.4499140406      DE        A2 (4)
  157   124          13.0990340178         356.4428368276      PI        B1 (2)
  158   176          13.0990340178         356.4428368276      PI        B2 (3)
  159    61          13.5836915966         369.6310400226     SG+        A1 (1)
  160    62          17.3762754742         472.8324939934     SG+        A1 (1)
  161   177          18.7440516567         510.0515760993      PI        B2 (3)
  162   125          18.7440516567         510.0515760994      PI        B1 (2)
  163    63          19.7766091923         538.1488950829     SG+        A1 (1)
  164   213          26.2691765994         714.8206360479      DE        A2 (4)
  165    64          26.2691765994         714.8206360479      DE        A1 (1)
  166   178          26.5923055823         723.6134226900      PI        B2 (3)
  167   126          26.5923055823         723.6134226900      PI        B1 (2)
  168    65          27.0696500906         736.6026271198     SG+        A1 (1)
  169   127          33.4611960774         910.5254354852      PI        B1 (2)
  170   179          33.4611960774         910.5254354852      PI        B2 (3)
  171    66          34.3277342862         934.1051389139     SG+        A1 (1)
  172    67          35.6389792261         969.7859277054     SG+        A1 (1)
  173    68          47.0731573171        1280.9257316053      DE        A1 (1)
  174   214          47.0731573171        1280.9257316054      DE        A2 (4)
  175   128          47.2599258208        1286.0079609662      PI        B1 (2)
  176   180          47.2599258208        1286.0079609662      PI        B2 (3)
  177    69          47.5399811832        1293.6286548058     SG+        A1 (1)
  178    70          63.7958555356        1735.9734843113     SG+        A1 (1)
  179   181          66.3238622108        1804.7640431863      PI        B2 (3)
  180   129          66.3238622108        1804.7640431864      PI        B1 (2)
  181    71          67.0764553299        1825.2431430937     SG+        A1 (1)
  182   182          98.5175718381        2680.7994189235      PH        B2 (3)
  183   130          98.5175718381        2680.7994189235      PH        B1 (2)
  184    72          98.5310753842        2681.1668690939      DE        A1 (1)
  185   215          98.5310753842        2681.1668690939      DE        A2 (4)
  186   131          98.5445044754        2681.5322932437      PI        B1 (2)
  187   183          98.5445044754        2681.5322932437      PI        B2 (3)
  188    73          98.5561778605        2681.8499422011     SG+        A1 (1)
  189   184         103.3063228475        2811.1079586464      PH        B2 (3)
  190   132         103.3063228475        2811.1079586464      PH        B1 (2)
  191   216         103.3090414364        2811.1819352111      DE        A2 (4)
  192    74         103.3090414364        2811.1819352124      DE        A1 (1)
  193   133         103.3401798961        2812.0292557779      PI        B1 (2)
  194   185         103.3401798961        2812.0292557779      PI        B2 (3)
  195    75         103.3460698376        2812.1895292355     SG+        A1 (1)
  196   217         114.9703792478        3128.5030693552      DE        A2 (4)
  197    76         114.9703792478        3128.5030693553      DE        A1 (1)
  198   186         115.1267991388        3132.7594709816      PI        B2 (3)
  199   134         115.1267991388        3132.7594709817      PI        B1 (2)
  200    77         115.3623121592        3139.1681060735     SG+        A1 (1)
  201   135         116.7592438176        3177.1805490149      PI        B1 (2)
  202   187         116.7592438176        3177.1805490149      PI        B2 (3)
  203    78         117.4584769616        3196.2076501824     SG+        A1 (1)
  204    79         121.9036773521        3317.1677022969     SG+        A1 (1)
  205    80         198.5536528049        5402.9195719451      DE        A1 (1)
  206   218         198.5536528049        5402.9195719451      DE        A2 (4)
  207   136         198.6555031098        5405.6910596402      PI        B1 (2)
  208   188         198.6555031098        5405.6910596403      PI        B2 (3)
  209    81         198.7995270209        5409.6101495056     SG+        A1 (1)
  210    82         216.3211849355        5886.3987008230     SG+        A1 (1)
  211   189         224.8027590631        6117.1940662438      PI        B2 (3)
  212   137         224.8027590631        6117.1940662439      PI        B1 (2)
  213    83         225.3932090671        6133.2610276814     SG+        A1 (1)
  214   190         395.2797503994       10756.1088383752      PI        B2 (3)
  215   138         395.2797503994       10756.1088383753      PI        B1 (2)
  216    84         395.8412461610       10771.3879148202     SG+        A1 (1)
  217    85         508.6241999622       13840.3681116909     SG+        A1 (1)
  218    86         895.1388632067       24357.9668029590     SG+        A1 (1)


  VSCF finished.

 @CHECKOUT-I, Total execution time (CPU/WALL):       56.23/      12.55 seconds.
--executable xvscf finished with status     0 in       12.59 seconds (walltime).
 --invoking executable--
/nfs/workspaces/public/cfour_mpi/bin/xvtran
 @GETMEM-I,  Allocated    3814 MB of main memory.
  Full RHF integral transformation
  Transformation of IIII integrals :
  1 pass through the AO integral file was required.
     4451196 AO integrals were read.
     8576477 MO integrals were written to HF2.
  Transformation of IIJJ integrals :
  1 pass through the AO integral file was required.
    10110608 AO integrals were read.
    14346461 MO integrals were written to HF2.
  Transformation of IJIJ integrals :
  1 pass through the AO integral file was required.
    19201920 AO integrals were read.
    26579752 MO integrals were written to HF2.
  Transformation of IJKL integrals :
  1 pass through the AO integral file was required.
    14196508 AO integrals were read.
    18007030 MO integrals were written to HF2.
  Summary of active molecular orbitals: 
------------------------------------------------------------------------
 
  Index      Eigenvalue    Symmetry    Index      Eigenvalue    Symmetry
------------------------------------------------------------------------
     1       -20.6497021        1       110         4.1356746        2
     2       -11.5120228        1       111         4.1584443        2
     3        -1.2944587        1       112         4.5607010        2
     4        -0.8013371        1       113         5.1790758        2
     5        -0.5402398        1       114         5.3443279        2
     6        -0.5067488        2       115         5.9068508        2
     7        -0.5067488        3       116         6.1417162        2
     8         0.0621369        1       117         6.3608920        2
     9         0.0683093        1       118         6.8170829        2
    10         0.1567058        1       119         7.3279081        2
    11         0.2080165        1       120         9.7732824        2
    12         0.2231708        1       121        10.7411984        2
    13         0.3005481        1       122        10.9776417        2
    14         0.3255747        1       123        11.8872935        2
    15         0.4288287        1       124        12.4019547        2
    16         0.5127825        1       125        13.0990340        2
    17         0.5493829        1       126        18.7440517        2
    18         0.7091392        1       127        26.5923056        2
    19         0.7418801        1       128        33.4611961        2
    20         0.8224336        1       129        47.2599258        2
    21         0.8630484        1       130        66.3238622        2
    22         0.8788942        1       131        98.5175718        2
    23         1.1300905        1       132        98.5445045        2
    24         1.3701256        1       133       103.3063228        2
    25         1.5814610        1       134       103.3401799        2
    26         1.5984496        1       135       115.1267991        2
    27         1.6849984        1       136       116.7592438        2
    28         1.9159340        1       137       198.6555031        2
    29         1.9667263        1       138       224.8027591        2
    30         2.0716909        1       139       395.2797504        2
    31         2.1308392        1       140         0.0023613        3
    32         2.2285651        1       141         0.0833573        3
    33         2.2904226        1       142         0.1776822        3
    34         2.4182203        1       143         0.2881988        3
    35         2.6216825        1       144         0.4038530        3
    36         2.6669242        1       145         0.6230138        3
    37         2.9853611        1       146         0.7338902        3
    38         3.7062940        1       147         0.7798882        3
    39         3.9018880        1       148         0.8894035        3
    40         4.1454297        1       149         1.0366733        3
    41         4.1944445        1       150         1.4221234        3
    42         4.2865811        1       151         1.5031755        3
    43         4.4267856        1       152         1.6378830        3
    44         4.7120488        1       153         2.0814844        3
    45         4.7547690        1       154         2.2094336        3
    46         5.2711119        1       155         2.2206655        3
    47         5.8332223        1       156         2.2318064        3
    48         6.0610700        1       157         2.5163058        3
    49         6.1190509        1       158         2.5939574        3
    50         6.1978351        1       159         3.4268749        3
    51         6.3442034        1       160         3.9334277        3
    52         6.4954153        1       161         4.1356746        3
    53         7.1125768        1       162         4.1584443        3
    54         7.9225897        1       163         4.5607010        3
    55         9.6022078        1       164         5.1790758        3
    56        10.6493994        1       165         5.3443279        3
    57        10.6898068        1       166         5.9068508        3
    58        10.9709724        1       167         6.1417162        3
    59        11.1728655        1       168         6.3608920        3
    60        11.9999433        1       169         6.8170829        3
    61        12.6320261        1       170         7.3279081        3
    62        12.7318008        1       171         9.7732824        3
    63        13.5836916        1       172        10.7411984        3
    64        17.3762755        1       173        10.9776417        3
    65        19.7766092        1       174        11.8872935        3
    66        26.2691766        1       175        12.4019547        3
    67        27.0696501        1       176        13.0990340        3
    68        34.3277343        1       177        18.7440517        3
    69        35.6389792        1       178        26.5923056        3
    70        47.0731573        1       179        33.4611961        3
    71        47.5399812        1       180        47.2599258        3
    72        63.7958555        1       181        66.3238622        3
    73        67.0764553        1       182        98.5175718        3
    74        98.5310754        1       183        98.5445045        3
    75        98.5561779        1       184       103.3063228        3
    76       103.3090414        1       185       103.3401799        3
    77       103.3460698        1       186       115.1267991        3
    78       114.9703792        1       187       116.7592438        3
    79       115.3623122        1       188       198.6555031        3
    80       117.4584770        1       189       224.8027591        3
    81       121.9036774        1       190       395.2797504        3
    82       198.5536528        1       191         0.2231708        4
    83       198.7995270        1       192         0.5493829        4
    84       216.3211849        1       193         0.7418801        4
    85       225.3932091        1       194         0.8630484        4
    86       395.8412462        1       195         1.5814610        4
    87       508.6242000        1       196         1.6849984        4
    88       895.1388632        1       197         2.0716909        4
    89         0.0023613        2       198         2.1308392        4
    90         0.0833573        2       199         2.2904226        4
    91         0.1776822        2       200         2.6669242        4
    92         0.2881988        2       201         3.7062940        4
    93         0.4038530        2       202         4.1944445        4
    94         0.6230138        2       203         4.2865811        4
    95         0.7338902        2       204         4.7120488        4
    96         0.7798882        2       205         5.8332223        4
    97         0.8894035        2       206         6.1190509        4
    98         1.0366733        2       207         6.3442034        4
    99         1.4221234        2       208         6.4954153        4
   100         1.5031755        2       209        10.6493994        4
   101         1.6378830        2       210        10.9709724        4
   102         2.0814844        2       211        11.9999433        4
   103         2.2094336        2       212        12.7318008        4
   104         2.2206655        2       213        26.2691766        4
   105         2.2318064        2       214        47.0731573        4
   106         2.5163058        2       215        98.5310754        4
   107         2.5939574        2       216       103.3090414        4
   108         3.4268749        2       217       114.9703792        4
   109         3.9334277        2       218       198.5536528        4
------------------------------------------------------------------------
  -20.6497020607116       -11.5120228239688       -1.29445869508258     
 -0.801337116243339      -0.540239808346140      -0.506748840964892     
 -0.506748840964942       6.213694868222271E-002  6.830925673732807E-002
  0.156705751295822       0.208016450493850       0.223170787338606     
  0.300548119494634       0.325574708386103       0.428828726097081     
  0.512782493575631       0.549382943284808       0.709139188792845     
  0.741880055944419       0.822433580702081       0.863048429294769     
  0.878894234321951        1.13009049312588        1.37012558687441     
   1.58146100426008        1.59844958317489        1.68499841410929     
   1.91593396715109        1.96672628500841        2.07169088448589     
   2.13083916360668        2.22856513893504        2.29042261208192     
   2.41822026076669        2.62168253566115        2.66692421525204     
   2.98536106539704        3.70629400496020        3.90188801399829     
   4.14542974949906        4.19444449504777        4.28658113819744     
   4.42678561101751        4.71204879687335        4.75476896862249     
   5.27111187945022        5.83322230885344        6.06107001456200     
[...]
 Convergence information after    13 iterations: 
 Largest element of residual vector : -0.14421944E-05.
 Largest element of DIIS residual   : -0.13633286E-05.
 Convergence information after    14 iterations: 
 Largest element of residual vector : -0.89038258E-06.
 Largest element of DIIS residual   : -0.80700708E-06.
 Convergence information after    15 iterations: 
 Largest element of residual vector : -0.41868649E-06.
 Largest element of DIIS residual   : -0.25285779E-06.
 Convergence information after    16 iterations: 
 Largest element of residual vector : -0.15451509E-06.
 Largest element of DIIS residual   : -0.13202702E-06.
 Convergence information after    17 iterations: 
 Largest element of residual vector : -0.69332457E-07.
 Largest element of DIIS residual   : -0.61485782E-07.
 Perturbed amplitude equations converged in    17 iterations.
  Dominant contributions to perturbed wavefunction:
    7    7  140   45  -0.2290156759 ABAB
    7    7   45  140  -0.2290156759 ABAB
    7    7  140   22  -0.2123128664 ABAB
    7    7   22  140  -0.2123128664 ABAB
    7    7  140   39  -0.2114770881 ABAB
    7    7   39  140  -0.2114770881 ABAB
    7    7  140   28   0.2044950624 ABAB
    7    7   28  140   0.2044950624 ABAB
    7    0   35    0   0.1646316879 AA  
    7    7  140   29  -0.1622876249 ABAB
    7    7   29  140  -0.1622876249 ABAB
    7    7  140   57   0.1591229662 ABAB
    7    7   57  140   0.1591229662 ABAB
    7    7  140   54   0.1467776344 ABAB
    7    7   54  140   0.1467776344 ABAB
    7    6   45   89  -0.1433271013 ABAB
    6    7   89   45  -0.1433271013 ABAB
    7    0   39    0   0.1354198846 AA  
    7    7  140   16   0.1330010720 ABAB
    7    7   16  140   0.1330010720 ABAB
  norm of converged amps    1.70801436672398     
 Starting iterative solution of the perturbed Lambda equations.
 The DIIS procedure is used to accelerate convergence.
 Convergence criterion is 10**(-7).
 Maximum number of iterations is 100.
 Convergence information after     1 iterations: 
 Largest element of residual vector :  0.77125390E-01.
 Largest element of DIIS residual   :  0.77125390E-01.
 Convergence information after     2 iterations: 
 Largest element of residual vector :  0.15361426E-01.
 Largest element of DIIS residual   :  0.11650945E-01.
 Convergence information after     3 iterations: 
 Largest element of residual vector : -0.65116908E-02.
 Largest element of DIIS residual   : -0.61867965E-02.
 Convergence information after     4 iterations: 
 Largest element of residual vector : -0.38599365E-02.
 Largest element of DIIS residual   : -0.34720407E-02.
 Convergence information after     5 iterations: 
 Largest element of residual vector : -0.32226119E-02.
 Largest element of DIIS residual   : -0.24678884E-02.
 Convergence information after     6 iterations: 
 Largest element of residual vector : -0.16047194E-02.
 Largest element of DIIS residual   : -0.71353033E-03.
 Convergence information after     7 iterations: 
 Largest element of residual vector : -0.73662381E-03.
 Largest element of DIIS residual   : -0.34693401E-03.
 Convergence information after     8 iterations: 
 Largest element of residual vector : -0.24163963E-03.
 Largest element of DIIS residual   : -0.15658399E-03.
 Convergence information after     9 iterations: 
 Largest element of residual vector : -0.10189966E-03.
 Largest element of DIIS residual   : -0.46147087E-04.
 Convergence information after    10 iterations: 
 Largest element of residual vector : -0.41691530E-04.
 Largest element of DIIS residual   : -0.18690442E-04.
 Convergence information after    11 iterations: 
 Largest element of residual vector : -0.86385743E-05.
 Largest element of DIIS residual   : -0.48910141E-05.
 Convergence information after    12 iterations: 
 Largest element of residual vector : -0.24098912E-05.
 Largest element of DIIS residual   : -0.18597139E-05.
 Convergence information after    13 iterations: 
 Largest element of residual vector : -0.15666622E-05.
 Largest element of DIIS residual   : -0.13599883E-05.
 Convergence information after    14 iterations: 
 Largest element of residual vector : -0.66216468E-06.
 Largest element of DIIS residual   : -0.52893078E-06.
 Convergence information after    15 iterations: 
 Largest element of residual vector : -0.37618969E-06.
 Largest element of DIIS residual   : -0.14384408E-06.
 Convergence information after    16 iterations: 
 Largest element of residual vector : -0.89570616E-07.
 Largest element of DIIS residual   : -0.87008137E-07.
 Perturbed Lambda equations converged in    16 iterations.
  Dominant contributions to perturbed wavefunction:
    7    7  140   45  -0.1924045838 ABAB
    7    7   45  140  -0.1924045838 ABAB
    7    7  140   22  -0.1780642555 ABAB
    7    7   22  140  -0.1780642555 ABAB
    7    7  140   39  -0.1760296326 ABAB
    7    7   39  140  -0.1760296326 ABAB
    7    7  140   28   0.1741409249 ABAB
    7    7   28  140   0.1741409249 ABAB
    7    7  140   29  -0.1333295034 ABAB
    7    7   29  140  -0.1333295034 ABAB
    7    7  140   57   0.1326088260 ABAB
    7    7   57  140   0.1326088260 ABAB
    7    7  140   54   0.1240137145 ABAB
    7    7   54  140   0.1240137145 ABAB
    7    6   45   89  -0.1189505255 ABAB
    6    7   89   45  -0.1189505255 ABAB
    7    7  140   16   0.1097672252 ABAB
    7    7   16  140   0.1097672252 ABAB
    7    6   39   89  -0.1092153139 ABAB
    6    7   89   39  -0.1092153139 ABAB
        The DBOC first-order density matrix is being calculated 
             (Symmetry block 3, perturbation   2)
 term   3.09719791251005     
 final tnorm  0.808811187656600     
  norm contr. I: |<0|L dT/dx|0>|^2   0.000000000000000E+000
  norm contr. II: <0|[nabla(1+L)e-T][nabla e^T]|0>   3.09719791251005     
  total norm contribution   3.09719791251005     
 oo  7.786111584705997E-003
 vv  -20.5986254505034     
 vo  6.312272177327810E-002
  Correlated perturbed 1-el contribution to DBOC  -20.5277166171454       cm**-1
  SUM_I |dc_I/dx|^2 contribution to DBOC   10.3613620602213       cm**-1
 
 
  The total diagonal Born-Oppenheimer correction (DBOC) is:      0.0038696820 a.u.
  The total diagonal Born-Oppenheimer correction (DBOC) is:        849.297039 cm-1
 
 Total CC energy including DBOC  -113.102716248912     
 First-order density matrix is being calculated  (Symmetry block 3, perturbation   2)
 Calculation of the contributions of <pq||rs> to dI(i,j)/dx required   3.6 seconds.
 Calculation of the contributions of <pq||rs> to dI(a,b)/dx required  15.5 seconds.
 Calculation of the contributions of <pq||rs> to dI(i,a)/dx required   9.1 seconds.
 First-order Z-vector equations are solved for 1 perturbation.
 Convergence reached after  19 iterations.
        U*G(pq,rs) contribution is being calculated
             (Symmetry block 3, perturbation   2)

 CCSD contribution to force constants 

        0.0000000000        0.0000000000        0.0000000000
        0.0000000000        0.0000000000        0.0000000000
        0.0000000000        0.0000000000        0.0000000000
        0.0000000000        0.0000000000        0.0000000000
        0.0000000000        0.0000000000        0.0000000000
        0.0000000000        0.0000000000        0.0000000000
        0.0000000000        0.0000000000        0.0000000000
        0.0000000000        0.0000000000        0.0000000000
        0.0000000000        0.0000000000        0.0000000000
        0.0000000000        0.0000000000        0.0000000000
        0.0000000000        0.0000000000        0.0000000000
        0.0000000000       -3.3542054494        3.3542054494

 CCSD contribution to dipole derivatives 

        0.0000000000        0.0000000000        0.0000000000
        0.0000000000        0.0000000000        0.0000000000
        0.0000000000        0.0000000000        0.0000000000
        0.0000000000        0.0000000000       -0.0570959941
        0.0000000000        0.0000000000        0.0000000000
        0.0000000000        0.0000000000        0.0000000000
 @CHECKOUT-I, Total execution time (CPU/WALL):     1320.34/     507.17 seconds.
--executable xsdcc finished with status     0 in      507.42 seconds (walltime).
 --invoking executable--
/nfs/workspaces/public/cfour_mpi/bin/xanti
 @GETMEM-I,  Allocated    3814 MB of main memory.
 CCSD MO derivative gammas will be sorted to Mulliken order.
 @CHECKOUT-I, Total execution time (CPU/WALL):       12.56/      22.07 seconds.
--executable xanti finished with status     0 in       22.22 seconds (walltime).
 --invoking executable--
/nfs/workspaces/public/cfour_mpi/bin/xbcktrn
 @GETMEM-I,  Allocated    3814 MB of main memory.
 CCSD MO derivative gammas will be transformed to the AO basis.
 @CHECKOUT-I, Total execution time (CPU/WALL):       28.20/      15.53 seconds.
--executable xbcktrn finished with status     0 in       15.59 seconds (walltime).
 --invoking executable--
/nfs/workspaces/public/cfour_mpi/bin/xvdint
 @GETMEM-I,  Allocated    3814 MB of main memory.
 One- and two-electron integral derivatives are calculated
 for RHF-CC/MBPT hessians and dipole derivatives.
 Spherical gaussians are used.
  magnet F F
                    8722  records have been written to the Sort file.
  Total length of Sort file :             178609116  words.
 Evaluation of 2el integral derivatives

                      Two-electron integral gradient
                      ------------------------------

                         C #1 z     0.0000000000
                         O #2 z     0.0000000000


 C #1       0.0000000000            0.0565183911            0.0000000000
 O #2       0.0000000000           -0.0565183911            0.0000000000


 Evaluation of 2e integral derivatives required  354.25 seconds.
  contribution to Hessian
        0.0000000000        0.0000000000        0.0000000000
        0.0000000000        0.0565183911       -0.0565183911
 @CHECKOUT-I, Total execution time (CPU/WALL):      354.23/      70.50 seconds.
--executable xvdint finished with status     0 in       70.65 seconds (walltime).
 --invoking executable--
/nfs/workspaces/public/cfour_mpi/bin/xanti
 @GETMEM-I,  Allocated    3814 MB of main memory.
 CCSD MO gammas will be sorted to Mulliken order.
 @CHECKOUT-I, Total execution time (CPU/WALL):       16.27/      54.05 seconds.
--executable xanti finished with status     0 in       54.18 seconds (walltime).
 --invoking executable--
/nfs/workspaces/public/cfour_mpi/bin/xbcktrn
 @GETMEM-I,  Allocated    3814 MB of main memory.
 CCSD MO gammas will be transformed to the AO basis.
 @CHECKOUT-I, Total execution time (CPU/WALL):       40.28/      16.68 seconds.
--executable xbcktrn finished with status     0 in       16.75 seconds (walltime).
 --invoking executable--
/nfs/workspaces/public/cfour_mpi/bin/xvdint
 @GETMEM-I,  Allocated    3814 MB of main memory.
 One- and two-electron integral derivatives are calculated
 for RHF-CC/MBPT hessians and dipole derivatives.
 Spherical gaussians are used.
  magnet F F

                     Kinetic energy integral gradient
                     --------------------------------

                         C #1 z    -0.5858244858
                         O #2 z     0.5858244858


 C #1       0.0000000000            0.0000000000           -0.5858244858
 O #2       0.0000000000            0.0000000000            0.5858244858



                   Nuclear attraction integral gradient
                   ------------------------------------

                         C #1 z    14.3964738981
                         O #2 z   -14.3964738981


 C #1       0.0000000000            0.0000000000           14.3964738981
 O #2       0.0000000000            0.0000000000          -14.3964738981



                      Reorthonormalization gradient
                      -----------------------------

                         C #1 z     0.0000000000
                         O #2 z     0.0000000000


 C #1       0.0000000000            0.0000000000            0.0000000000
 O #2       0.0000000000            0.0000000000            0.0000000000



                     Kinetic energy integral Hessian
                     -------------------------------


           Symmetry 1

           C #1 z      O #2 z

 C #1 z    0.612813
 O #2 z   -0.612813    0.612813


           Symmetry 2

           C #1 x      O #2 x

 C #1 x   -0.466735
 O #2 x    0.466735   -0.466735


           Symmetry 3

           C #1 y      O #2 y

 C #1 y   -0.466735
 O #2 y    0.466735   -0.466735




           C #1 x      C #1 y      C #1 z      O #2 x      O #2 y      O #2 z

 C #1 x   -0.466735
 C #1 y    0.000000   -0.466735
 C #1 z    0.000000    0.000000    0.612813

 O #2 x    0.466735    0.000000    0.000000   -0.466735
 O #2 y    0.000000    0.466735    0.000000    0.000000   -0.466735
 O #2 z    0.000000    0.000000   -0.612813    0.000000    0.000000    0.612813




                   Nuclear attraction integral Hessian
                   -----------------------------------


           Symmetry 1

           C #1 z      O #2 z

 C #1 z   -8.813102
 O #2 z    8.813102   -8.813102


           Symmetry 2

           C #1 x      O #2 x

 C #1 x    8.020932
 O #2 x   -8.020932    8.020932


           Symmetry 3

           C #1 y      O #2 y

 C #1 y    8.020932
 O #2 y   -8.020932    8.020932




           C #1 x      C #1 y      C #1 z      O #2 x      O #2 y      O #2 z

 C #1 x    8.020932
 C #1 y    0.000000    8.020932
 C #1 z    0.000000    0.000000   -8.813102

 O #2 x   -8.020932    0.000000    0.000000    8.020932
 O #2 y    0.000000   -8.020932    0.000000    0.000000    8.020932
 O #2 z    0.000000    0.000000    8.813102    0.000000    0.000000   -8.813102




                Highest order reorthonormalization Hessian
                ------------------------------------------


           Symmetry 1

           C #1 z      O #2 z

 C #1 z    0.000000
 O #2 z    0.000000    0.000000


           Symmetry 2

           C #1 x      O #2 x

 C #1 x    0.000000
 O #2 x    0.000000    0.000000


           Symmetry 3

           C #1 y      O #2 y

 C #1 y    0.000000
 O #2 y    0.000000    0.000000




           C #1 x      C #1 y      C #1 z      O #2 x      O #2 y      O #2 z




                Electronic contributions to dipole moment
                -----------------------------------------

                               au             Debye

                    z     -0.72837852     -1.85135385

  Conversion factor used: 1 a.u. =   2.54174691 Debye 



   Electronic contributions to static part of dipole moment derivatives
   --------------------------------------------------------------------


                     Total dipole moment derivatives
                     -------------------------------


           Symmetry 1
                              Ez

               C #1 z    -5.61542252
               O #2 z    -8.38457748

           Symmetry 2
                              Ex

               C #1 x    -5.67026953
               O #2 x    -8.32973047

           Symmetry 3
                              Ey

               C #1 y    -5.67026953
               O #2 y    -8.32973047



                       Ex          Ey          Ez

      C #1    x   -5.670270    0.000000    0.000000
      C #1    y    0.000000   -5.670270    0.000000
      C #1    z    0.000000    0.000000   -5.615423

      O #2    x   -8.329730    0.000000    0.000000
      O #2    y    0.000000   -8.329730    0.000000
      O #2    z    0.000000    0.000000   -8.384577

 Evaluation of 1e integral derivatives required    1.71 seconds.
                    8815  records have been written to the Sort file.
  Total length of Sort file :             180513570  words.
 Evaluation of 2el integral derivatives

                      Two-electron integral gradient
                      ------------------------------

                         C #1 z    -7.6190693149
                         O #2 z     7.6190693149


 C #1       0.0000000000            0.0000000000           -7.6190693149
 O #2       0.0000000000            0.0000000000            7.6190693149


 Evaluation of 2e integral derivatives required  735.22 seconds.

                            Molecular gradient
                            ------------------

                         C #1 z     0.6092657374
                         O #2 z    -0.6092657374


 C #1       0.0000000000            0.0000000000            0.6092657374
 O #2       0.0000000000            0.0000000000           -0.6092657374


  Molecular gradient norm 0.862E+00

                            Molecular hessian
                            -----------------


           Symmetry 1

           C #1 z      O #2 z

 C #1 z   18.593672
 O #2 z  -18.593672   18.593672


           Symmetry 2

           C #1 x      O #2 x

 C #1 x    3.557661
 O #2 x   -3.557661    3.557661


           Symmetry 3

           C #1 y      O #2 y

 C #1 y    3.557661
 O #2 y   -3.557661    3.557661




           C #1 x      C #1 y      C #1 z      O #2 x      O #2 y      O #2 z

 C #1 x    3.557661
 C #1 y    0.000000    3.557661
 C #1 z    0.000000    0.000000   18.593672

 O #2 x   -3.557661    0.000000    0.000000    3.557661
 O #2 y    0.000000   -3.557661    0.000000    0.000000    3.557661
 O #2 z    0.000000    0.000000  -18.593672    0.000000    0.000000   18.593672




                           Total dipole moment
                           -------------------

                               au             Debye

                    z      0.44409555      1.12877848

  Conversion factor used: 1 a.u. =   2.54174691 Debye 



                     Total dipole moment derivatives
                     -------------------------------


           Symmetry 1
                              Ez

               C #1 z     0.60630757
               O #2 z    -0.60630757

           Symmetry 2
                              Ex

               C #1 x     0.15704979
               O #2 x    -0.15704979

           Symmetry 3
                              Ey

               C #1 y     0.15704979
               O #2 y    -0.15704979



                       Ex          Ey          Ez

      C #1    x    0.157050    0.000000    0.000000
      C #1    y    0.000000    0.157050    0.000000
      C #1    z    0.000000    0.000000    0.606308

      O #2    x   -0.157050    0.000000    0.000000
      O #2    y    0.000000   -0.157050    0.000000
      O #2    z    0.000000    0.000000   -0.606308

 @CHECKOUT-I, Total execution time (CPU/WALL):      736.90/     132.45 seconds.
--executable xvdint finished with status     0 in      132.69 seconds (walltime).
 --invoking executable--
/nfs/workspaces/public/cfour_mpi/bin/xjoda
  @GTFLGS-I, Hessian will be transformed to curvilinear coordinates.
  @GTFLGS-I, Hessian will be transformed to curvilinear coordinates.
  igrd and ihes are                      0                     1
  gradient from JOBARC 
   0.000000000000000   0.000000000000000   0.609265737417378
   0.000000000000000   0.000000000000000  -0.609265737417378
 
  @PROJFCM-I, Projecting force constant matrix onto totally symmetric subspace.
  Largest difference between matrix elements of symmetrized
  and unsymmetrized FCM :     0.1338040789E-11.
  read isotopes from ZMAT file 
 
  Summary of diagonal Born-Oppenheimer correction at the correlated level
  The total diagonal Born-Oppenheimer correction (DBOC) is:      0.0038696820 a.u.
  The total diagonal Born-Oppenheimer correction (DBOC) is:        849.297039 cm-1
  The total diagonal Born-Oppenheimer correction (DBOC) is:            10.160 kJ/mole
  hellooooooo 
  readis is  F
 
 @CHECKOUT-I, Total execution time (CPU/WALL):        0.02/       0.10 seconds.
--executable xjoda finished with status     0 in        0.17 seconds (walltime).
  The final electronic energy is      -113.102716248911889 a.u. 
  This computation required                         4489.28 seconds (walltime).
