 --invoking executable--
/nfs/workspaces/public/cfour_mpi/bin/xjoda


   *************************************************************************
         <<<     CCCCCC     CCCCCC   |||     CCCCCC     CCCCCC   >>>
       <<<      CCC        CCC       |||    CCC        CCC         >>>
      <<<      CCC        CCC        |||   CCC        CCC            >>>
    <<<        CCC        CCC        |||   CCC        CCC              >>>
      <<<      CCC        CCC        |||   CCC        CCC            >>>
       <<<      CCC        CCC       |||    CCC        CCC         >>>
         <<<     CCCCCC     CCCCCC   |||     CCCCCC     CCCCCC   >>>
   *************************************************************************

     ****************************************************************
     * CFOUR Coupled-Cluster techniques for Computational Chemistry *
     ****************************************************************
 

   Department of Chemistry                Institut fuer Physikalische Chemie
   University of Florida                  Universitaet Mainz
   Gainesville, FL 32611, USA             D-55099 Mainz, Germany

   Department of Chemistry                Fakultaet fuer Chemie und Biowiss.
   Johns Hopkins University               Karlsruher Institut fuer Technologie
   Baltimore, MD 21218, USA               D-76131 Karlsruhe, Germany

   Department of Chemistry                Department of Physical Chemistry
   Southern Methodist University          Eotvos Lorand University
   Dallas, TX 75275, USA                  H-1053 Budapest, Hungary

 
                       Version 2.1
 
                     vincent.theory.phys.ucl.ac.uk                     
                     Sat  1 Mar 01:32:15 GMT 2025                      
                     integer*8 version is running
 
********************************************************************************
*                          Input from ZMAT file                                *
********************************************************************************
Carbon Monoxide DBOC calculation                                                
C                                                                               
O 1 r                                                                           
                                                                                
r=0.9                                                                           
                                                                                
                                                                                
*CFOUR(CALC=CCSD,BASIS=AUG-PCVQZ,SCF_CONV=10                                    
CC_CONV=14,DBOC=ON,MEMORY=500000000                                             
ZFIELD=200)                                                                     
                                                                                
%isotopes                                                                       
12                                                                              
18                                                                              
********************************************************************************
  @GTFLGS-I, Hessian will be transformed to curvilinear coordinates.
    -------------------------------------------------------------------
                    CFOUR Control Parameters 
    -------------------------------------------------------------------
        External           Internal           Value            Units
          Name               Name
    -------------------------------------------------------------------
       ABCDTYPE             IABCDT         STANDARD    [  0]    ***   
       ANHARMONIC           IANHAR         OFF         [  0]    ***   
       ANH_ALGORIT          IANALG         STANDARD    [  0]    ***   
       ANH_DERIVAT          IANDER         SECOND      [  1]    ***   
       ANH_MODE             ANHMOD         VIBRATION   [  0]    ***   
       ANH_STEPSIZ          ICUBST             50000          x 10-6  
       ANH_SYMMETR          IANHSM         ABELIAN     [  0]    ***   
       AO_LADDERS           IAOLAD         SINGLEPASS  [  1]    ***   
       AV_SCF               IAVSCF         OFF         [  0]    ***   
       BASIS                IBASIS         AUG-PCVQZ   [ 52]    ***   
       BOTHVECTORS          BOTHVC         OFF         [  0]    ***   
       BOX_POTENT           IPIAB          OFF         [  0]    ***   
       BREIT                IBREIT         OFF         [  0]    ***   
       BRUCK_CONV           IBRTOL          10D-  4             ***   
       BRUECKNER            IBRKNR         OFF         [  0]    ***   
       BUFFERSIZE           IBUFFS              4096            ***   
       CACHE_RECS           ICHREC             10               ***   
       CALCLEVEL            ICLLVL         CCSD        [ 10]    ***   
       CCORBOPT             ICCORB         OFF         [  0]  x 0.01  
       CC_CONV              ICCCNV          10D- 14             ***   
       CC_EXPORDER          ICCEOR              5               ***   
       CC_EXTRAPOL          ICCEXT         DIIS        [  1]    ***   
       CC_GUESS             ICCGES         MP2         [  0]    ***   
       CC_MAXCYC            ICCCYC            100              cycles 
       CC_PROGRAM           ICCPRO         VCC         [  0]    ***   
       CHARGE               ICHRGE              0               ***   
       CHOLESKY             ICHOLE         OFF         [  0]    ***   
       CIS_CONV             ICISTL              5               ***   
       COMM_SIZE            IPSIZE            ***               ***   
       CONSTANT             ICONST         OLD         [  1]    ***   
       CONTINUUM            ICONTU         NONE        [  0]    ***   
       CONTRACTION          ICNTYP         GENERAL     [  1]    ***   
       COORDINATES          ICOORD         INTERNAL    [  0]    ***   
       CPHF_CONVER          ICPHFT          10D- 16             ***   
       CPHF_MAXCYC          ICPHFC             64              cycles 
       CUBIC                ICUBIC         OFF         [  0]    ***   
       CURVILINEAR          ICURVY         ON          [  1]    ***   
       DBOC                 IDBOC          ON          [  1]    ***   
       DCT                  IDCT           OFF         [  0]    ***   
       DERIV_LEV            IDRLVL         SECOND      [  2]    ***   
       DEVMEM_SIZE          IDVMEM          50000000           MByte  
       DIAG_MRCC            IEOMST          10D-  0             ***   
       DIFF_TYPE            IDIFTY         RELAXED     [  0]    ***   
       DIRECT               IDIRCT         OFF         [  0]    ***   
       DROPMO               IDRPMO      NONE         
       ECP                  IECP           OFF         [  0]    ***   
       EIGENVECTOR          IVEC                1               ***   
       EL_ANHARM            IELANH         OFF         [  0]    ***   
       EOMFOLLOW            IEOMSR         ENERGY      [  0]    ***   
       EOMIP                IEOMIP         OFF         [  0]    ***   
       EOMLEVEL             HBARFM         SAME        [  0]    ***   
       EOM_MRCC             IMRCCE         NEW         [  1]    ***   
       EOM_NONIT            EOMNON         OFF         [  0]    ***   
       EOM_NSING            IEOMSI          10D-  0             ***   
       EOM_NSTATES          IMRCCD         DAVIDSON    [  0]    ***   
       EOM_NTRIP            IEOMTR          10D-  0             ***   
       EOM_ORDER            IEXORD         ENERGY      [  0]    ***   
       EOM_PROPSTA          IEOMST              0               ***   
       ESTATE_CONV          IEXTOL          10D-  5             ***   
       ESTATE_DIAG          IEXDIG         ITERATIVE   [  0]    ***   
       ESTATE_LOCK          IESLOC         ON          [  1]    ***   
       ESTATE_MAXC          IEXMXC             40               ***   
       ESTATE_PROP          IEXPRP         OFF         [  0]    ***   
       EVAL_HESS            IRECAL              0            # of cyc.
       EXCITATION           IEXCIT              0               ***   
       EXCITE               IEXCIT         NONE        [  0]    ***   
       EXTERN_POT           IEXPOT         OFF         [  0]    ***   
       FCGRADNEW            IFCGNW         OFF         [  0]    ***   
       FC_FIELD             IFINFC              0             x 10-6  
       FD_CALTYPE           IFDCAL         GRADONLY    [  0]    ***   
       FD_PROJECT           IFDPRJ         OFF         [  1]    ***   
       FD_STEPSIZE          IDISFD              0            10-4 bohr
       FD_USEGROUP          IFDGRP         FULL        [  0]    ***   
       FILE_RECSIZ          IFLREC              4096           words  
       FINITE_PERT          IFIPER              0             x 10-6  
       FIXGEOM              IFIXGM         OFF         [  0]    ***   
       FOCK                 IFOCK          AO          [  1]    ***   
       FREQ_ALGORI          IVIALG         STANDARD    [  0]    ***   
       FROZEN_CORE          IFROCO         OFF         [  0]    ***   
       GAMMA_ABCD           IGABCD         STORE       [  0]    ***   
       GAMMA_ABCI           IGABCI         STORE       [  0]    ***   
       GENBAS_1             IGNBS1              0               ***   
       GENBAS_2             IGNBS2              0               ***   
       GENBAS_3             IGNBS3              0               ***   
       GENBAS_4             IGNBS4              0               ***   
       GEO_CONV             ICONTL              5              H/bohr 
       GEO_MAXCYC           IOPTCY             50               ***   
       GEO_MAXSTEP          IMXSTP            300            millibohr
       GEO_METHOD           INR            SINGLE_POINT[  5]    ***   
       GIAO                 IGIAO          OFF         [  1]    ***   
       GIMIC                IGIMIC         OFF         [  0]    ***   
       GRID                 IGRID          OFF         [  0]    ***   
       GRID_ALGO            IGALGO         SERIAL      [  0]    ***   
       GUESS                IGUESS         MOREAD      [  0]    ***   
       HBAR                 IHBAR          OFF         [  0]    ***   
       HESS_TYPE            IHESTP         SCF         [  0]    ***   
       HF2_FILE             IHF2Fl         USE         [  1]    ***   
       HFSTABILITY          ISTABL         OFF         [  0]    ***   
       INCORE               INCORE         OFF         [  0]    ***   
       INPUT_MRCC           IMRCC          ON          [  1]    ***   
       INTEGRALS            INTTYP         VMOL        [  1]    ***   
       JODA_PRINT           IJPRNT              0               ***   
       KEYWORD_OUT          IDMPKW         NO          [  0]    ***   
       LINDEP_TOL           ILINDP              8               ***   
       LINEQ_CONV           IZTACN          10D-  7           cycles  
       LINEQ_EXPOR          ILMAXD              5               ***   
       LINEQ_MAXCY          ILMAXC            100               ***   
       LINEQ_TYPE           ILTYPE         DIIS        [  1]    ***   
       LOCK_ORBOCC          ILOCOC         OFF         [  0]    ***   
       MEMORY_SIZE          IMEMSZ         500000000           words  
       MEM_UNIT             IMEMU          INTEGERWORDS[  0]    ***   
       MRCC                 IMRCCC         OFF         [  0]    ***   
       MULTIPLICTY          IMULTP              1               ***   
       NACOUPLING           IVCOUP         OFF         [  0]    ***   
       NEGEVAL              IDIE           ABORT       [  0]    ***   
       NEWNORM              INEWNO         OFF         [  0]    ***   
       NON-HF               INONHF         OFF         [  0]    ***   
       NTOP_TAMP            ITOPT2             15               ***   
       NUC_MODEL            INUCMO         POINT       [  0]    ***   
       OCCUPATION           IOCCU   ESTIMATED BY SCF 
       OPEN-SHELL           IOPEN          SPIN-ORBITAL[  0]    ***   
       OPTVIB               IOPTVB         OFF         [  0]    ***   
       ORBITALS             IORBTP         STANDARD    [  0]    ***   
       PARALLEL             IPARAL         ON          [  1]    ***   
       PARA_INT             IPINTS         ON          [  1]    ***   
       PARA_PRINT           IPPRIN              0               ***   
       PERT_ORB             IPTORB         STANDARD    [  0]    ***   
       POINTS               IGRDFD              0               ***   
       PRINT                IPRNT               0               ***   
       PROPS                IPROPS         OFF         [  0]    ***   
       PROP_INTEGR          IINTYP         INTERNAL    [  0]    ***   
       PSI                  IPSI           OFF         [  0]    ***   
       QC_ALG               IQCALG         FLM         [  0]    ***   
       QC_LINALG            IQCLIN         TRIDIAG     [  2]    ***   
       QC_MAXCYC            IQCMAX          10D-100           cycles  
       QC_MAXSCFCY          IQCMSC          10D- 15           cycles  
       QC_RTRUST            IQCRTR          10D-  0           x 10-3  
       QC_SKIPSCF           IQCSKI         OFF         [  0]    ***   
       QC_START             IQCSTA          10D-  1             ***   
       QRHFGUESS            IQGUES         OFF         [  0]    ***   
       QUARTIC              IQUART         OFF         [  0]    ***   
       RAMAN_INT            IRAMIN         OFF         [  0]    ***   
       RAMAN_ORB            IRAMRE         UNRELAXED   [  0]    ***   
       RDO                  IRDOFM         ON          [  1]    ***   
       REDUCE_REPR          REDREP         Ir          [  0]    ***   
       REFERENCE            IREFNC         RHF         [  0]    ***   
       RELATIVIST           IRELAT         OFF         [  0]    ***   
       RELAX_DENS           IRDENS         ON          [  1]    ***   
       RESET_FLAGS          IRESET         OFF         [  0]    ***   
       RESTART_CC           ICCRES         OFF         [  0]    ***   
       ROT_EVEC             ROTVEC              0               ***   
       SAVE_INTS            ISVINT         OFF         [  0]    ***   
       SCALE_ON             ISTCRT              0               ***   
       SCF_CONV             ISCFCV          10D- 10             ***   
       SCF_DAMPING          IDAMP               0             x 10-3  
       SCF_EXPORDE          IRPPOR              6               ***   
       SCF_EXPSTAR          IRPPLS              8               ***   
       SCF_EXTRAPO          IRPP           ON          [  1]    ***   
       SCF_MAXCYC           ISCFCY            150              cycles 
       SCF_NOSTOP           ISCFST         OFF         [  0]    ***   
       SCF_PRINT            ISCFPR              0               ***   
       SCF_PROG             ISCFPR         SCF         [  0]    ***   
       SD_FIELD             IFINSD              0             x 10-6  
       SOPERT               IPERSO         OFF         [  0]    ***   
       SPHERICAL            IDFGHI         ON          [  1]    ***   
       SPINORBIT            ISOCAL         OFF         [  0]    ***   
       SPINROTATIO          ISRCON         OFF         [  0]    ***   
       SPIN_FLIP            ISPFLP         OFF         [  0]    ***   
       SPIN_ORBIT           ISPORB         OFF         [  0]    ***   
       SPIN_SCAL            ISCSMP         OFF         [  0]    ***   
       STEEPSCALE           ISTPSC              1000          x 10-3  
       SUBGROUP             ISUBGP         DEFAULT     [  0]    ***   
       SUBGRPAXIS           ISBXYZ         X           [  0]    ***   
       SYMMETRY             ISYM           ON          [  0]    ***   
       SYM_CHECK            ISYMCK         OVERRIDE    [  1]    ***   
       T3_EXTRAPOL          IT3EXT         OFF         [  0]    ***   
       T4_EXTRAPOL          IT4EXP         OFF         [  0]    ***   
       TAMP_SUM             IEVERY              5               ***   
       TESTSUITE            ITESTS         OFF         [  0]    ***   
       THERMOCH             ITHERM         OFF         [  0]    ***   
       TOL_CHOLESK          ITOLCH          10D-  4             ***   
       TRANGRAD             IRESRM         OFF         [  0]    ***   
       TRANS_INV            ITRAIN         IGNORE      [  1]    ***   
       TREAT_PERT           ITREAT         SIMULTANEOUS[  0]    ***   
       TRIP_ALGORI          ITRALG         NORMAL      [  0]    ***   
       UIJ_THRESHO          IUIJTH              1               ***   
       UNITS                IUNITS         ANGSTROM    [  0]    ***   
       UNOS                 IUNOS          OFF         [  0]    ***   
       UPDATE_HESS          IHUPDT         ON          [  1]    ***   
       VIBPHASE             ISETPH         STANDARD    [  0]    ***   
       VIBRATION            IVIB           ANALYTIC    [  1]    ***   
       VIB_ALGORIT          IGEALG         STANDARD    [  0]    ***   
       VNATORB              IVNORB         OFF         [  0]    ***   
       VTRAN                IVTRAN         FULL/PARTIAL[  0]    ***   
       XFIELD               IXEFLD              0             x 10-6  
       XFORM_TOL            IXFTOL          10D- 11             ***   
       YFIELD               IYEFLD              0             x 10-6  
       ZFIELD               IZEFLD            200             x 10-6  
       ZSCALE_EXP           IZEXPS         OFF         [  0]    ***   
    -------------------------------------------------------------------
   2 entries found in Z-matrix 
   Job Title : Carbon Monoxide DBOC calculation                                                
   There are  1 unique internal coordinates.
   Of these,  0 will be optimized.
   User supplied Z-matrix: 
--------------------------------------------------------------------------------
       SYMBOL    BOND      LENGTH    ANGLE     ANGLE     DIHED     ANGLE
                  TO      (ANGST)    WRT      (DEG)      WRT      (DEG)
--------------------------------------------------------------------------------
        C    
        O          1         r    
                  *Initial values for internal coordinates* 
                      Name             Value
                        r               0.9000000000
--------------------------------------------------------------------------------
  read isotopes from ZMAT file 
   Rotational constants (in cm-1): 
          2.8905943142             2.8905943142
   Rotational constants (in MHz): 
      86657.8495950514         86657.8495950514
********************************************************************************
   The full molecular point group is CXv .
   The largest Abelian subgroup of the full molecular point group is C2v .
   The computational point group is C2v .
********************************************************************************
--------------------------------------------------------------------------------
   Analysis of internal coordinates specified by Z-matrix 
--------------------------------------------------------------------------------
   *The nuclear repulsion energy is   28.222778666666663 a.u.
   *There is   1 degree of freedom within the tot. symm. molecular subspace.
   *Z-matrix requests optimization of   0 coordinates.
   *The optimization is constrained.
   *The following   1 parameters can have non-zero 
    derivatives within the totally symmetric subspace:
             r    [ 1]
   *The following   0 parameters are to be optimized:

   *The following coordinates must be varied in an  unconstrained optimization.
             r    [ 1]
--------------------------------------------------------------------------------


 ----------------------------------------------------------------
         Coordinates used in calculation (QCOMP) 
 ----------------------------------------------------------------
 Z-matrix   Atomic            Coordinates (in bohr)
  Symbol    Number           X              Y              Z
 ----------------------------------------------------------------
     C         6        -0.00000000     0.00000000     1.02043328
     O         8         0.00000000     0.00000000    -0.68032059
 ----------------------------------------------------------------
 
   Interatomic distance matrix (Angstroms) 
 
                 C             O    
                [ 1]        [ 2]
  C    [ 1]     0.00000
  O    [ 2]     0.90000     0.00000
 rotcon2
   Rotational constants (in cm-1): 
          2.8905943142             0.0000000000
   Rotational constants (in MHz): 
      86657.8495950514             0.0000000000
  ECPDATA file not present.   Using default ECPDATA. 
  @GTFLGS-I, Hessian will be transformed to curvilinear coordinates.
  There are  218 basis functions.
 @CHECKOUT-I, Total execution time (CPU/WALL):        0.28/       0.44 seconds.
--executable xjoda finished with status     0 in        0.49 seconds (walltime).
 --invoking executable--
/nfs/workspaces/public/cfour_mpi/bin/xvmol
 SERIAL VERSION OF MOLECULE STARTED
********************************************************************************
                    INPUT FROM MOL FILE
********************************************************************************
INTGRL        1    0    1    0    0    0    0    0    0                         
         *** CFOUR Program System (Release V0.1) ***                            
Carbon Monoxide DBOC calculation                                                
    2    2 X  Y       0.10E-08              0    0                              
   9999.00      3.00                                                            
          6.00000000    1    5    1    1    1    1    1                         
C #1  -0.000000000000000   0.000000000000000   1.020433278987231                
   16    9                                                                      
   33980.0000000000       9.100000000000000E-005 -1.900000000000000E-005        
  0.000000000000000E+000  0.000000000000000E+000  0.000000000000000E+000        
  0.000000000000000E+000  0.000000000000000E+000  0.000000000000000E+000        
  0.000000000000000E+000                                                        
   5089.00000000000       7.040000000000000E-004 -1.510000000000000E-004        
  0.000000000000000E+000  0.000000000000000E+000  0.000000000000000E+000        
  0.000000000000000E+000  0.000000000000000E+000  0.000000000000000E+000        
  0.000000000000000E+000                                                        
   1157.00000000000       3.693000000000000E-003 -7.850000000000000E-004        
  0.000000000000000E+000  0.000000000000000E+000  0.000000000000000E+000        
  0.000000000000000E+000  0.000000000000000E+000  0.000000000000000E+000        
  0.000000000000000E+000                                                        
   326.600000000000       1.536000000000000E-002 -3.324000000000000E-003        
  0.000000000000000E+000  0.000000000000000E+000  0.000000000000000E+000        
  0.000000000000000E+000  0.000000000000000E+000  0.000000000000000E+000        
  0.000000000000000E+000                                                        
   106.100000000000       5.292900000000000E-002 -1.151200000000000E-002        
  0.000000000000000E+000  0.000000000000000E+000  0.000000000000000E+000        
  0.000000000000000E+000  0.000000000000000E+000  0.000000000000000E+000        
  0.000000000000000E+000                                                        
   38.1100000000000       0.147043000000000      -3.416000000000000E-002        
  0.000000000000000E+000  0.000000000000000E+000  0.000000000000000E+000        
  0.000000000000000E+000  0.000000000000000E+000  0.000000000000000E+000        
  0.000000000000000E+000                                                        
   14.7500000000000       0.305631000000000      -7.717300000000001E-002        
  0.000000000000000E+000  0.000000000000000E+000  0.000000000000000E+000        
  0.000000000000000E+000  0.000000000000000E+000  0.000000000000000E+000        
  0.000000000000000E+000                                                        
   6.03500000000000       0.399345000000000      -0.141493000000000             
  0.000000000000000E+000  0.000000000000000E+000  0.000000000000000E+000        
  0.000000000000000E+000  0.000000000000000E+000  0.000000000000000E+000        
  0.000000000000000E+000                                                        
   2.53000000000000       0.217051000000000      -0.118019000000000             
  0.000000000000000E+000  0.000000000000000E+000  0.000000000000000E+000        
  0.000000000000000E+000  0.000000000000000E+000  0.000000000000000E+000        
  0.000000000000000E+000                                                        
  0.735500000000000       1.589400000000000E-002  0.273806000000000             
   1.00000000000000       0.000000000000000E+000  0.000000000000000E+000        
  0.000000000000000E+000  0.000000000000000E+000  0.000000000000000E+000        
  0.000000000000000E+000                                                        
  0.290500000000000      -3.084000000000000E-003  0.586510000000000             
  0.000000000000000E+000   1.00000000000000       0.000000000000000E+000        
  0.000000000000000E+000  0.000000000000000E+000  0.000000000000000E+000        
  0.000000000000000E+000                                                        
  0.111100000000000       9.779999999999999E-004  0.285430000000000             
  0.000000000000000E+000  0.000000000000000E+000   1.00000000000000             
  0.000000000000000E+000  0.000000000000000E+000  0.000000000000000E+000        
  0.000000000000000E+000                                                        
   7.21600000000000       0.000000000000000E+000  0.000000000000000E+000        
  0.000000000000000E+000  0.000000000000000E+000  0.000000000000000E+000        
   1.00000000000000       0.000000000000000E+000  0.000000000000000E+000        
  0.000000000000000E+000                                                        
   19.5700000000000       0.000000000000000E+000  0.000000000000000E+000        
  0.000000000000000E+000  0.000000000000000E+000  0.000000000000000E+000        
  0.000000000000000E+000   1.00000000000000       0.000000000000000E+000        
  0.000000000000000E+000                                                        
   53.0730000000000       0.000000000000000E+000  0.000000000000000E+000        
  0.000000000000000E+000  0.000000000000000E+000  0.000000000000000E+000        
  0.000000000000000E+000  0.000000000000000E+000   1.00000000000000             
  0.000000000000000E+000                                                        
  4.145000000000000E-002  0.000000000000000E+000  0.000000000000000E+000        
  0.000000000000000E+000  0.000000000000000E+000  0.000000000000000E+000        
  0.000000000000000E+000  0.000000000000000E+000  0.000000000000000E+000        
   1.00000000000000                                                             
   10    8                                                                      
   34.5100000000000       5.378000000000000E-003  0.000000000000000E+000        
  0.000000000000000E+000  0.000000000000000E+000  0.000000000000000E+000        
  0.000000000000000E+000  0.000000000000000E+000  0.000000000000000E+000        
   7.91500000000000       3.613200000000000E-002  0.000000000000000E+000        
  0.000000000000000E+000  0.000000000000000E+000  0.000000000000000E+000        
  0.000000000000000E+000  0.000000000000000E+000  0.000000000000000E+000        
   2.36800000000000       0.142493000000000       0.000000000000000E+000        
  0.000000000000000E+000  0.000000000000000E+000  0.000000000000000E+000        
  0.000000000000000E+000  0.000000000000000E+000  0.000000000000000E+000        
  0.813200000000000       0.342150000000000        1.00000000000000             
  0.000000000000000E+000  0.000000000000000E+000  0.000000000000000E+000        
  0.000000000000000E+000  0.000000000000000E+000  0.000000000000000E+000        
  0.289000000000000       0.463864000000000       0.000000000000000E+000        
   1.00000000000000       0.000000000000000E+000  0.000000000000000E+000        
  0.000000000000000E+000  0.000000000000000E+000  0.000000000000000E+000        
  0.100700000000000       0.250028000000000       0.000000000000000E+000        
  0.000000000000000E+000   1.00000000000000       0.000000000000000E+000        
  0.000000000000000E+000  0.000000000000000E+000  0.000000000000000E+000        
   8.18200000000000       0.000000000000000E+000  0.000000000000000E+000        
  0.000000000000000E+000  0.000000000000000E+000   1.00000000000000             
  0.000000000000000E+000  0.000000000000000E+000  0.000000000000000E+000        
   24.1860000000000       0.000000000000000E+000  0.000000000000000E+000        
  0.000000000000000E+000  0.000000000000000E+000  0.000000000000000E+000        
   1.00000000000000       0.000000000000000E+000  0.000000000000000E+000        
   71.4940000000000       0.000000000000000E+000  0.000000000000000E+000        
  0.000000000000000E+000  0.000000000000000E+000  0.000000000000000E+000        
  0.000000000000000E+000   1.00000000000000       0.000000000000000E+000        
  3.218000000000000E-002  0.000000000000000E+000  0.000000000000000E+000        
  0.000000000000000E+000  0.000000000000000E+000  0.000000000000000E+000        
  0.000000000000000E+000  0.000000000000000E+000   1.00000000000000             
    6    6                                                                      
   1.84800000000000        1.00000000000000       0.000000000000000E+000        
  0.000000000000000E+000  0.000000000000000E+000  0.000000000000000E+000        
  0.000000000000000E+000                                                        
  0.649000000000000       0.000000000000000E+000   1.00000000000000             
  0.000000000000000E+000  0.000000000000000E+000  0.000000000000000E+000        
  0.000000000000000E+000                                                        
  0.228000000000000       0.000000000000000E+000  0.000000000000000E+000        
   1.00000000000000       0.000000000000000E+000  0.000000000000000E+000        
  0.000000000000000E+000                                                        
   8.65600000000000       0.000000000000000E+000  0.000000000000000E+000        
  0.000000000000000E+000   1.00000000000000       0.000000000000000E+000        
  0.000000000000000E+000                                                        
   33.2130000000000       0.000000000000000E+000  0.000000000000000E+000        
  0.000000000000000E+000  0.000000000000000E+000   1.00000000000000             
  0.000000000000000E+000                                                        
  7.660000000000000E-002  0.000000000000000E+000  0.000000000000000E+000        
  0.000000000000000E+000  0.000000000000000E+000  0.000000000000000E+000        
   1.00000000000000                                                             
    4    4                                                                      
   1.41900000000000        1.00000000000000       0.000000000000000E+000        
  0.000000000000000E+000  0.000000000000000E+000                                
  0.485000000000000       0.000000000000000E+000   1.00000000000000             
  0.000000000000000E+000  0.000000000000000E+000                                
   24.6940000000000       0.000000000000000E+000  0.000000000000000E+000        
   1.00000000000000       0.000000000000000E+000                                
  0.187000000000000       0.000000000000000E+000  0.000000000000000E+000        
  0.000000000000000E+000   1.00000000000000                                     
    2    2                                                                      
   1.01100000000000        1.00000000000000       0.000000000000000E+000        
  0.424000000000000       0.000000000000000E+000   1.00000000000000             
          8.00000000    1    5    1    1    1    1    1                         
O #2   0.000000000000000   0.000000000000000  -0.680320589613659                
   16    9                                                                      
   61420.0000000000       9.000000000000001E-005 -2.000000000000000E-005        
  0.000000000000000E+000  0.000000000000000E+000  0.000000000000000E+000        
  0.000000000000000E+000  0.000000000000000E+000  0.000000000000000E+000        
  0.000000000000000E+000                                                        
   9199.00000000000       6.980000000000001E-004 -1.590000000000000E-004        
  0.000000000000000E+000  0.000000000000000E+000  0.000000000000000E+000        
  0.000000000000000E+000  0.000000000000000E+000  0.000000000000000E+000        
  0.000000000000000E+000                                                        
   2091.00000000000       3.664000000000000E-003 -8.290000000000000E-004        
  0.000000000000000E+000  0.000000000000000E+000  0.000000000000000E+000        
  0.000000000000000E+000  0.000000000000000E+000  0.000000000000000E+000        
  0.000000000000000E+000                                                        
   590.900000000000       1.521800000000000E-002 -3.508000000000000E-003        
  0.000000000000000E+000  0.000000000000000E+000  0.000000000000000E+000        
  0.000000000000000E+000  0.000000000000000E+000  0.000000000000000E+000        
  0.000000000000000E+000                                                        
   192.300000000000       5.242300000000000E-002 -1.215600000000000E-002        
  0.000000000000000E+000  0.000000000000000E+000  0.000000000000000E+000        
  0.000000000000000E+000  0.000000000000000E+000  0.000000000000000E+000        
  0.000000000000000E+000                                                        
   69.3200000000000       0.145921000000000      -3.626100000000000E-002        
  0.000000000000000E+000  0.000000000000000E+000  0.000000000000000E+000        
  0.000000000000000E+000  0.000000000000000E+000  0.000000000000000E+000        
  0.000000000000000E+000                                                        
   26.9700000000000       0.305258000000000      -8.299200000000000E-002        
  0.000000000000000E+000  0.000000000000000E+000  0.000000000000000E+000        
  0.000000000000000E+000  0.000000000000000E+000  0.000000000000000E+000        
  0.000000000000000E+000                                                        
   11.1000000000000       0.398508000000000      -0.152090000000000             
  0.000000000000000E+000  0.000000000000000E+000  0.000000000000000E+000        
  0.000000000000000E+000  0.000000000000000E+000  0.000000000000000E+000        
  0.000000000000000E+000                                                        
   4.68200000000000       0.216980000000000      -0.115331000000000             
  0.000000000000000E+000  0.000000000000000E+000  0.000000000000000E+000        
  0.000000000000000E+000  0.000000000000000E+000  0.000000000000000E+000        
  0.000000000000000E+000                                                        
   1.42800000000000       1.759400000000000E-002  0.288979000000000             
   1.00000000000000       0.000000000000000E+000  0.000000000000000E+000        
  0.000000000000000E+000  0.000000000000000E+000  0.000000000000000E+000        
  0.000000000000000E+000                                                        
  0.554700000000000      -2.502000000000000E-003  0.586128000000000             
  0.000000000000000E+000   1.00000000000000       0.000000000000000E+000        
  0.000000000000000E+000  0.000000000000000E+000  0.000000000000000E+000        
  0.000000000000000E+000                                                        
  0.206700000000000       9.540000000000000E-004  0.277624000000000             
  0.000000000000000E+000  0.000000000000000E+000   1.00000000000000             
  0.000000000000000E+000  0.000000000000000E+000  0.000000000000000E+000        
  0.000000000000000E+000                                                        
   12.9740000000000       0.000000000000000E+000  0.000000000000000E+000        
  0.000000000000000E+000  0.000000000000000E+000  0.000000000000000E+000        
   1.00000000000000       0.000000000000000E+000  0.000000000000000E+000        
  0.000000000000000E+000                                                        
   34.9000000000000       0.000000000000000E+000  0.000000000000000E+000        
  0.000000000000000E+000  0.000000000000000E+000  0.000000000000000E+000        
  0.000000000000000E+000   1.00000000000000       0.000000000000000E+000        
  0.000000000000000E+000                                                        
   93.8810000000000       0.000000000000000E+000  0.000000000000000E+000        
  0.000000000000000E+000  0.000000000000000E+000  0.000000000000000E+000        
  0.000000000000000E+000  0.000000000000000E+000   1.00000000000000             
  0.000000000000000E+000                                                        
  6.959000000000000E-002  0.000000000000000E+000  0.000000000000000E+000        
  0.000000000000000E+000  0.000000000000000E+000  0.000000000000000E+000        
  0.000000000000000E+000  0.000000000000000E+000  0.000000000000000E+000        
   1.00000000000000                                                             
   10    8                                                                      
   63.4200000000000       6.044000000000000E-003  0.000000000000000E+000        
  0.000000000000000E+000  0.000000000000000E+000  0.000000000000000E+000        
  0.000000000000000E+000  0.000000000000000E+000  0.000000000000000E+000        
   14.6600000000000       4.179900000000000E-002  0.000000000000000E+000        
  0.000000000000000E+000  0.000000000000000E+000  0.000000000000000E+000        
  0.000000000000000E+000  0.000000000000000E+000  0.000000000000000E+000        
   4.45900000000000       0.161143000000000       0.000000000000000E+000        
  0.000000000000000E+000  0.000000000000000E+000  0.000000000000000E+000        
  0.000000000000000E+000  0.000000000000000E+000  0.000000000000000E+000        
   1.53100000000000       0.356731000000000        1.00000000000000             
  0.000000000000000E+000  0.000000000000000E+000  0.000000000000000E+000        
  0.000000000000000E+000  0.000000000000000E+000  0.000000000000000E+000        
  0.530200000000000       0.448309000000000       0.000000000000000E+000        
   1.00000000000000       0.000000000000000E+000  0.000000000000000E+000        
  0.000000000000000E+000  0.000000000000000E+000  0.000000000000000E+000        
  0.175000000000000       0.244940000000000       0.000000000000000E+000        
  0.000000000000000E+000   1.00000000000000       0.000000000000000E+000        
  0.000000000000000E+000  0.000000000000000E+000  0.000000000000000E+000        
   14.4750000000000       0.000000000000000E+000  0.000000000000000E+000        
  0.000000000000000E+000  0.000000000000000E+000   1.00000000000000             
  0.000000000000000E+000  0.000000000000000E+000  0.000000000000000E+000        
   42.7300000000000       0.000000000000000E+000  0.000000000000000E+000        
  0.000000000000000E+000  0.000000000000000E+000  0.000000000000000E+000        
   1.00000000000000       0.000000000000000E+000  0.000000000000000E+000        
   126.140000000000       0.000000000000000E+000  0.000000000000000E+000        
  0.000000000000000E+000  0.000000000000000E+000  0.000000000000000E+000        
  0.000000000000000E+000   1.00000000000000       0.000000000000000E+000        
  5.348000000000000E-002  0.000000000000000E+000  0.000000000000000E+000        
  0.000000000000000E+000  0.000000000000000E+000  0.000000000000000E+000        
  0.000000000000000E+000  0.000000000000000E+000   1.00000000000000             
    6    6                                                                      
   3.77500000000000        1.00000000000000       0.000000000000000E+000        
  0.000000000000000E+000  0.000000000000000E+000  0.000000000000000E+000        
  0.000000000000000E+000                                                        
   1.30000000000000       0.000000000000000E+000   1.00000000000000             
  0.000000000000000E+000  0.000000000000000E+000  0.000000000000000E+000        
  0.000000000000000E+000                                                        
  0.444000000000000       0.000000000000000E+000  0.000000000000000E+000        
   1.00000000000000       0.000000000000000E+000  0.000000000000000E+000        
  0.000000000000000E+000                                                        
   14.9270000000000       0.000000000000000E+000  0.000000000000000E+000        
  0.000000000000000E+000   1.00000000000000       0.000000000000000E+000        
  0.000000000000000E+000                                                        
   57.5440000000000       0.000000000000000E+000  0.000000000000000E+000        
  0.000000000000000E+000  0.000000000000000E+000   1.00000000000000             
  0.000000000000000E+000                                                        
  0.154000000000000       0.000000000000000E+000  0.000000000000000E+000        
  0.000000000000000E+000  0.000000000000000E+000  0.000000000000000E+000        
   1.00000000000000                                                             
    4    4                                                                      
   2.66600000000000        1.00000000000000       0.000000000000000E+000        
  0.000000000000000E+000  0.000000000000000E+000                                
  0.859000000000000       0.000000000000000E+000   1.00000000000000             
  0.000000000000000E+000  0.000000000000000E+000                                
   26.4830000000000       0.000000000000000E+000  0.000000000000000E+000        
   1.00000000000000       0.000000000000000E+000                                
  0.324000000000000       0.000000000000000E+000  0.000000000000000E+000        
  0.000000000000000E+000   1.00000000000000                                     
    2    2                                                                      
   1.84600000000000        1.00000000000000       0.000000000000000E+000        
  0.714000000000000       0.000000000000000E+000   1.00000000000000             
FINISH                                                                          
 
********************************************************************************
 ONE- AND TWO-ELECTRON INTEGRALS OVER SYMMETRY-ADAPTED AOS ARE CALCULATED.

  SPHERICAL HARMONICS ARE USED.
  
  INTEGRALS LESS THAN  0.10E-13 ARE NEGLECTED.

  NUCLEAR REPULSION ENERGY :   28.2227786667 A.U.
  @MOLECU-I, ONE ELECTRON INTEGRALS (CPU/WALL):        0.07/       0.07 SECONDS.
  @TWOEL-I,    4727849 INTEGRALS OF SYMMETRY TYPE  I I I I
  @TWOEL-I,   20231656 INTEGRALS OF SYMMETRY TYPE  I J I J
  @TWOEL-I,   10661895 INTEGRALS OF SYMMETRY TYPE  I I J J
  @TWOEL-I,   14932446 INTEGRALS OF SYMMETRY TYPE  I J K L
  @TWOEL-I, TOTAL NUMBER OF 2-E INTEGRALS   50553846.
  @MOLECU-I, TWO ELECTRON INTEGRALS (CPU/WALL):      250.26/      34.08 SECONDS.
 @CHECKOUT-I, Total execution time (CPU/WALL):      250.35/      34.20 seconds.

Running with 14 threads/proc

--executable xvmol finished with status     0 in       34.25 seconds (walltime).
 --invoking executable--
/nfs/workspaces/public/cfour_mpi/bin/xvmol2ja
 @GETMEM-I,  Allocated    3814 MB of main memory.
 @CHECKOUT-I, Total execution time (CPU/WALL):        0.26/       0.61 seconds.
--executable xvmol2ja finished with status     0 in        0.65 seconds (walltime).
 --invoking executable--
/nfs/workspaces/public/cfour_mpi/bin/xvprop
 @GETMEM-I,  Allocated    3814 MB of main memory.
   Property integrals will be calculated.
    --------------------------------------------------------------
                                   Property evaluated at 
    Property type                X             Y             Z
    --------------------------------------------------------------
    Dipole moment               ----          ----          ----  
    Quadrupole moment           ----          ----          ----  
    Octopole moment             ----          ----          ----  
    Relativisitic corr.         ----          ----          ----  
    Second moment            0.0000000     0.0000000     0.0000000
    Electron density         0.0000000     0.0000000     1.0204333
    Electron density         0.0000000     0.0000000    -0.6803206
    Field gradient           0.0000000     0.0000000     1.0204333
    Field gradient           0.0000000     0.0000000    -0.6803206
    Potential                0.0000000     0.0000000     1.0204333
    Potential                0.0000000     0.0000000    -0.6803206
    --------------------------------------------------------------
 @CHECKOUT-I, Total execution time (CPU/WALL):        1.42/       1.47 seconds.
--executable xvprop finished with status     0 in        1.49 seconds (walltime).
 --invoking executable--
/nfs/workspaces/public/cfour_mpi/bin/xvscf
  There are  218 functions in the AO basis.

  There are 4 irreducible representations.

       Irrep        # of functions
         1                 86
         2                 52
         3                 52
         4                 28


  Parameters for SCF calculation: 
        SCF reference function:  RHF  
  Maximum number of iterations:  150
     Full symmetry point group: CXv 
     Computational point group: C2v 
        Initial density matrix: MOREAD                 
     SCF convergence tolerance: 10**(-10)
  DIIS convergence acceleration:  ON
          Latest start for DIIS:   8
                     DIIS order:   6

  Memory information:    2523578 words required.
  Fock matrices are constructed from AO integral file.
 @GETMEM-I,  Allocated      19 MB of main memory.
  Initialization and symmetry analysis required      0.001 seconds.

  Adding electric field perturbation to one-electron Hamiltonian.
  Field direction     : Z
  Field strength      :  0.0002000 a.u.

  @INITGES-I, Occupancies from core Hamiltonian:

          Alpha population by irrep:   5    1    1    0
           Beta population by irrep:   5    1    1    0


 total no. of electrons in initial guess :  0.000000000000000E+000
  --------------------------------------------------------------------
  Iteration         Total Energy            Largest Density Difference
  --------------------------------------------------------------------
       0            28.222642659675603              0.0000000000D+00
   current occupation vector 
     5  1  1  0
     5  1  1  0
       1           -89.260121645159998              0.2118142552D+02
   current occupation vector 
     5  1  1  0
     5  1  1  0
       2           -91.038484041755211              0.1367933595D+03
   current occupation vector 
     5  1  1  0
     5  1  1  0
       3          -104.259438678160635              0.1368169401D+03
   current occupation vector 
     4  1  2  0
     4  1  2  0
       4          -101.968054400041282              0.2152900278D+02
   current occupation vector 
     5  1  1  0
     5  1  1  0
       5          -106.518994300964053              0.2152758782D+02
   current occupation vector 
     4  1  2  0
     4  1  2  0
       6          -103.953811606780377              0.1612846391D+02
   current occupation vector 
     5  1  1  0
     5  1  1  0
       7          -106.891755316073287              0.1612786958D+02
   current occupation vector 
     4  1  2  0
     4  1  2  0
       8          -104.416043333569363              0.1331797112D+02
   current occupation vector 
     5  1  1  0
     5  1  1  0
       9          -111.931217181284140              0.1332510587D+02
   current occupation vector 
     5  1  1  0
     5  1  1  0
      10          -112.513835756567161              0.7541042210D+00
   current occupation vector 
     5  1  1  0
     5  1  1  0
      11          -112.608124170489290              0.2662542481D+00
   current occupation vector 
     5  1  1  0
     5  1  1  0
      12          -112.609374732601893              0.3168767927D-01
   current occupation vector 
     5  1  1  0
     5  1  1  0
      13          -112.609402985069480              0.5617243768D-02
   current occupation vector 
     5  1  1  0
     5  1  1  0
      14          -112.609404667702179              0.1772682021D-02
   current occupation vector 
     5  1  1  0
     5  1  1  0
      15          -112.609404768747325              0.4602583634D-03
   current occupation vector 
     5  1  1  0
     5  1  1  0
      16          -112.609404781363381              0.1540985468D-03
   current occupation vector 
     5  1  1  0
     5  1  1  0
      17          -112.609404782301979              0.5222106604D-04
   current occupation vector 
     5  1  1  0
     5  1  1  0
      18          -112.609404782327417              0.7331856722D-05
   current occupation vector 
     5  1  1  0
     5  1  1  0
      19          -112.609404782326649              0.9061458273D-06
   current occupation vector 
     5  1  1  0
     5  1  1  0
      20          -112.609404782327303              0.1636039235D-06
   current occupation vector 
     5  1  1  0
     5  1  1  0
      21          -112.609404782326990              0.3727168130D-07
   current occupation vector 
     5  1  1  0
     5  1  1  0
      22          -112.609404782327587              0.6126381014D-08
   current occupation vector 
     5  1  1  0
     5  1  1  0
      23          -112.609404782328241              0.1279445883D-08
   current occupation vector 
     5  1  1  0
     5  1  1  0
      24          -112.609404782327758              0.2765104049D-09
   current occupation vector 
     5  1  1  0
     5  1  1  0
      25          -112.609404782326990              0.2179793568D-09
   current occupation vector 
     5  1  1  0
     5  1  1  0
      26          -112.609404782327331              0.1783615478D-09
   current occupation vector 
     5  1  1  0
     5  1  1  0

  SCF has converged.

 Density matrix saved to file den.dat
 total electron number:   14.0000000000001     
     E(SCF)=      -112.609404782327246              0.9691547564D-10

  Eigenvector printing suppressed.

 @PUTMOS-I, Writing converged MOs to NEWMOS. 
 @PUTMOS-I, Symmetry   1 Full Blocks 21 Partial Blocksize   2
 @PUTMOS-I, Symmetry   2 Full Blocks 13 Partial Blocksize   0
 @PUTMOS-I, Symmetry   3 Full Blocks 13 Partial Blocksize   0
 @PUTMOS-I, Symmetry   4 Full Blocks  7 Partial Blocksize   0
 @PUTFOCK-I, Writing converged Fock matrix to NEWFOCK. 
 @PUTFOCK-I, Symmetry   1 Full Blocks 21 Partial Blocksize   2
 @PUTFOCK-I, Symmetry   2 Full Blocks 13 Partial Blocksize   0
 @PUTFOCK-I, Symmetry   3 Full Blocks 13 Partial Blocksize   0
 @PUTFOCK-I, Symmetry   4 Full Blocks  7 Partial Blocksize   0


 
  ORBITAL EIGENVALUES (ALPHA)  (1H = 27.2113834 eV)

       MO #        E(hartree)               E(eV)           FULLSYM    COMPSYM
       ----   --------------------   --------------------   -------   ---------
    1     1         -20.6448175770        -561.7740463100     SG+        A1 (1)
    2     2         -11.2592869184        -306.3807731459     SG+        A1 (1)
    3     3          -1.6800361468         -45.7161077155     SG+        A1 (1)
    4     4          -0.8223499457         -22.3772796619     SG+        A1 (1)
    5   139          -0.7620879753         -20.7374680792      PI        B2 (3)
    6    87          -0.7620879752         -20.7374680789      PI        B1 (2)
    7     5          -0.5197733553         -14.1437520516     SG+        A1 (1)
  +++++++++++++++++++++++++++++++++++++++++++++++++++++++++++++++++++++++++++++
    8     6           0.0554148265           1.5079140894     SG+        A1 (1)
    9   140           0.0650538655           1.7702056759      PI        B2 (3)
   10    88           0.0650538655           1.7702056759      PI        B1 (2)
   11     7           0.0783509047           2.1320365083     SG+        A1 (1)
   12   141           0.1539561336           4.1893593794      PI        B2 (3)
   13    89           0.1539561336           4.1893593794      PI        B1 (2)
   14     8           0.1563304009           4.2539664761     SG+        A1 (1)
   15   142           0.2140321233           5.8241101667      PI        B2 (3)
   16    90           0.2140321233           5.8241101668      PI        B1 (2)
   17     9           0.2258905474           6.1467942919     SG+        A1 (1)
   18   191           0.2267658777           6.1706132403      DE        A2 (4)
   19    10           0.2267658777           6.1706132403      DE        A1 (1)
   20    11           0.3027813249           8.2390987187     SG+        A1 (1)
   21   143           0.3518468616           9.5742398481      PI        B2 (3)
   22    91           0.3518468616           9.5742398482      PI        B1 (2)
   23    12           0.4025397995          10.9536648174     SG+        A1 (1)
   24    92           0.4125660558          11.2264931228      PI        B1 (2)
   25   144           0.4125660558          11.2264931229      PI        B2 (3)
   26    13           0.5070737286          13.7981776408     SG+        A1 (1)
   27   192           0.5162606919          14.0481676208      DE        A2 (4)
   28    14           0.5162606919          14.0481676208      DE        A1 (1)
   29   145           0.6178302644          16.8120162006      PI        B2 (3)
   30    93           0.6178302644          16.8120162006      PI        B1 (2)
   31    15           0.6561798857          17.8555624496     SG+        A1 (1)
   32    94           0.7497853442          20.4026964701      PH        B1 (2)
   33   146           0.7497853442          20.4026964701      PH        B2 (3)
   34    16           0.7684979412          20.9118921188      DE        A1 (1)
   35   193           0.7684979412          20.9118921188      DE        A2 (4)
   36    17           0.8021110863          21.8265522982     SG+        A1 (1)
   37   147           0.8536344920          23.2285754458      PI        B2 (3)
   38    95           0.8536344920          23.2285754459      PI        B1 (2)
   39    96           0.8680496505          23.6208318489      PI        B1 (2)
   40   148           0.8680496505          23.6208318489      PI        B2 (3)
   41    18           0.8821858618          24.0054977168     SG+        A1 (1)
   42    19           0.9144211880          24.8826655361      DE        A1 (1)
   43   194           0.9144211880          24.8826655361      DE        A2 (4)
   44    20           0.9705661181          26.4104467550     SG+        A1 (1)
   45   149           1.1438123758          31.1247170969      PI        B2 (3)
   46    97           1.1438123759          31.1247170969      PI        B1 (2)
   47    21           1.3796898787          37.5432702624     SG+        A1 (1)
   48    98           1.4607095690          39.7479281189      PH        B1 (2)
   49   150           1.4607095690          39.7479281189      PH        B2 (3)
   50   195           1.4936138917          40.6433002596      DE        A2 (4)
   51    22           1.4936138917          40.6433002596      DE        A1 (1)
   52    99           1.5197796944          41.3553079469      PI        B1 (2)
   53   151           1.5197796944          41.3553079469      PI        B2 (3)
   54    23           1.5570624026          42.3698220159     SG+        A1 (1)
   55    24           1.6749048779          45.5764787899     SG+        A1 (1)
   56   196           1.7700400325          48.1652379575      DE        A2 (4)
   57    25           1.7700400325          48.1652379576      DE        A1 (1)
   58    26           1.8022233791          49.0409913424     SG+        A1 (1)
   59   100           1.8447180943          50.1973313302      PI        B1 (2)
   60   152           1.8447180944          50.1973313303      PI        B2 (3)
   61   153           2.0512723386          55.8179580637      PI        B2 (3)
   62   101           2.0512723386          55.8179580638      PI        B1 (2)
   63   197           2.1175678362          57.6219502665      PI        A2 (4)
   64    27           2.1175678362          57.6219502665      PI        A1 (1)
   65    28           2.2494065605          61.2094643398     SG+        A1 (1)
   66    29           2.2519216104          61.2779023274      DE        A1 (1)
   67   198           2.2519216104          61.2779023275      DE        A2 (4)
   68   102           2.2657659276          61.6546253509      PH        B1 (2)
   69   154           2.2657659276          61.6546253509      PH        B2 (3)
   70    30           2.3574851012          64.1504309480     SG+        A1 (1)
   71   155           2.3628489395          64.2963884083      PI        B2 (3)
   72   103           2.3628489395          64.2963884083      PI        B1 (2)
   73   199           2.3995362827          65.2947017703      DE        A2 (4)
   74    31           2.3995362827          65.2947017703      DE        A1 (1)
   75   156           2.4534622768          66.7621026712      PH        B2 (3)
   76   104           2.4534622768          66.7621026712      PH        B1 (2)
   77   157           2.6104620526          71.0342837658      PI        B2 (3)
   78   105           2.6104620527          71.0342837659      PI        B1 (2)
   79    32           2.7083438724          73.6977834920     SG+        A1 (1)
   80   158           3.1092741031          84.6076497148      PI        B2 (3)
   81   106           3.1092741031          84.6076497149      PI        B1 (2)
   82   200           3.1799063982          86.5296521773      DE        A2 (4)
   83    33           3.1799063982          86.5296521778      DE        A1 (1)
   84    34           3.2057549374          87.2330266884     SG+        A1 (1)
   85    35           3.3402945572          90.8940358651     SG+        A1 (1)
   86   159           3.7286363977         101.4613545764      PI        B2 (3)
   87   107           3.7286363977         101.4613545765      PI        B1 (2)
   88   201           3.7918158615         103.1805551882      PI        A2 (4)
   89    36           3.7918158615         103.1805551882      PI        A1 (1)
   90    37           4.0149682127         109.2528393751     SG+        A1 (1)
   91   160           4.0550879212         110.3445521435      PH        B2 (3)
   92   108           4.0550879212         110.3445521435      PH        B1 (2)
   93    38           4.1765548591         113.6498355622      DE        A1 (1)
   94   202           4.1765548591         113.6498355622      DE        A2 (4)
   95   109           4.2271980644         115.0279072379      PI        B1 (2)
   96   161           4.2271980644         115.0279072379      PI        B2 (3)
   97    39           4.3710796849         118.9431251782     SG+        A1 (1)
   98   203           4.4926039784         122.2499693195      DE        A2 (4)
   99    40           4.4926039784         122.2499693196      DE        A1 (1)
  100   162           4.5689315189         124.3269472892      PH        B2 (3)
  101   110           4.5689315189         124.3269472892      PH        B1 (2)
  102    41           4.7611717381         129.5580695999     SG+        A1 (1)
  103   163           4.9767188735         135.4234053413      PI        B2 (3)
  104   111           4.9767188735         135.4234053415      PI        B1 (2)
  105   204           5.2112954123         141.8065574743      DE        A2 (4)
  106    42           5.2112954123         141.8065574746      DE        A1 (1)
  107    43           5.2503643651         142.8696777276     SG+        A1 (1)
  108   112           5.3744750664         146.2469016062      PI        B1 (2)
  109   164           5.3744750664         146.2469016063      PI        B2 (3)
  110   205           5.9376438189         161.5715024486      PI        A2 (4)
  111    44           5.9376438189         161.5715024486      PI        A1 (1)
  112   165           6.0493581722         164.6114045481      PI        B2 (3)
  113   113           6.0493581722         164.6114045484      PI        B1 (2)
  114    45           6.1356631822         166.9598832651     SG+        A1 (1)
  115   114           6.3238099841         172.0796180264      PH        B1 (2)
  116   166           6.3238099841         172.0796180264      PH        B2 (3)
  117    46           6.3635793068         173.1617963138     SG+        A1 (1)
  118   206           6.3653398567         173.2097033130      DE        A2 (4)
  119    47           6.3653398567         173.2097033131      DE        A1 (1)
  120   167           6.4642328647         175.9007188676      PI        B2 (3)
  121   115           6.4642328647         175.9007188677      PI        B1 (2)
  122   116           6.6191078677         180.1150819537      PH        B1 (2)
  123   168           6.6191078677         180.1150819537      PH        B2 (3)
  124   207           6.8311008260         185.8837036199      DE        A2 (4)
  125    48           6.8311008260         185.8837036203      DE        A1 (1)
  126    49           7.2122415483         196.2550699441     SG+        A1 (1)
  127   169           8.0828046702         219.9442968274      PI        B2 (3)
  128   117           8.0828046702         219.9442968274      PI        B1 (2)
  129   208           8.3491135358         227.1909294726      DE        A2 (4)
  130    50           8.3491135358         227.1909294731      DE        A1 (1)
  131    51           8.7650965326         238.5104022853     SG+        A1 (1)
  132    52           8.9946878180         244.7578987777     SG+        A1 (1)
  133   170           9.0725228353         246.8758972771      PI        B2 (3)
  134   118           9.0725228353         246.8758972777      PI        B1 (2)
  135    53          10.0233121339         272.7481894123     SG+        A1 (1)
  136   119          10.2805021280         279.7466849499      PI        B1 (2)
  137   171          10.2805021280         279.7466849501      PI        B2 (3)
  138   209          10.6147418887         288.8418112256      PI        A2 (4)
  139    54          10.6147418887         288.8418112256      PI        A1 (1)
  140   120          11.1163507895         302.4912833412      PH        B1 (2)
  141   172          11.1163507895         302.4912833412      PH        B2 (3)
  142    55          11.4045935279         310.3347670092      DE        A1 (1)
  143   210          11.4045935279         310.3347670093      DE        A2 (4)
  144    56          11.4354995424         311.1757624179     SG+        A1 (1)
  145   121          11.5169892733         313.3932107305      PI        B1 (2)
  146   173          11.5169892733         313.3932107307      PI        B2 (3)
  147   174          11.8935378546         323.6396185449      PH        B2 (3)
  148   122          11.8935378546         323.6396185449      PH        B1 (2)
  149    57          12.5333357196         341.0494035479      DE        A1 (1)
  150   211          12.5333357197         341.0494035487      DE        A2 (4)
  151    58          13.2267427007         359.9179667622     SG+        A1 (1)
  152   212          13.3304678021         362.7404702649      DE        A2 (4)
  153    59          13.3304678021         362.7404702650      DE        A1 (1)
  154   123          13.5044375041         367.4744265260      PI        B1 (2)
  155   175          13.5044375041         367.4744265261      PI        B2 (3)
  156    60          14.2281601290         387.1679203468     SG+        A1 (1)
  157   124          15.4555279959         420.5662979449      PI        B1 (2)
  158   176          15.4555279959         420.5662979450      PI        B2 (3)
  159    61          15.7412677002         428.3416705931     SG+        A1 (1)
  160    62          19.1783004533         521.8680865958     SG+        A1 (1)
  161   177          19.7760420692         538.1334628791      PI        B2 (3)
  162   125          19.7760420692         538.1334628796      PI        B1 (2)
  163    63          22.1150568643         601.7812912485     SG+        A1 (1)
  164   213          26.8407823553         730.3748194270      DE        A2 (4)
  165    64          26.8407823553         730.3748194271      DE        A1 (1)
  166   178          28.1226620097         765.2565381738      PI        B2 (3)
  167   126          28.1226620097         765.2565381740      PI        B1 (2)
  168    65          29.4413861369         801.1408459976     SG+        A1 (1)
  169   127          34.1483787965         929.2246279200      PI        B1 (2)
  170   179          34.1483787965         929.2246279201      PI        B2 (3)
  171    66          36.5244148190         993.8798551015     SG+        A1 (1)
  172    67          37.6083535965        1023.3753287580     SG+        A1 (1)
  173    68          47.2831174913        1286.6390384027      DE        A1 (1)
  174   214          47.2831174913        1286.6390384027      DE        A2 (4)
  175   128          48.2733867082        1313.5856337337      PI        B1 (2)
  176   180          48.2733867082        1313.5856337338      PI        B2 (3)
  177    69          48.9347692896        1331.5827687303     SG+        A1 (1)
  178    70          65.2561965844        1775.7113844846     SG+        A1 (1)
  179   181          67.1978783551        1828.5472315860      PI        B2 (3)
  180   129          67.1978783551        1828.5472315864      PI        B1 (2)
  181    71          69.0131115181        1877.9422371473     SG+        A1 (1)
  182   182          98.7990469751        2688.4587467927      PH        B2 (3)
  183   130          98.7990469751        2688.4587467927      PH        B1 (2)
  184   215          98.8594538868        2690.1025024280      DE        A2 (4)
  185    72          98.8594538868        2690.1025024280      DE        A1 (1)
  186   183          98.9035239761        2691.3017105260      PI        B2 (3)
  187   131          98.9035239761        2691.3017105260      PI        B1 (2)
  188    73          98.9769626714        2693.3000790180     SG+        A1 (1)
  189   132         103.3120038943        2811.2625477897      PH        B1 (2)
  190   184         103.3120038943        2811.2625477897      PH        B2 (3)
  191   216         103.3869851407        2813.3028912327      DE        A2 (4)
  192    74         103.3869851408        2813.3028912352      DE        A1 (1)
  193   133         103.5150890389        2816.7887755213      PI        B1 (2)
  194   185         103.5150890389        2816.7887755215      PI        B2 (3)
  195    75         103.6446351637        2820.3139047917     SG+        A1 (1)
  196    76         115.4138593541        3140.5707765587      DE        A1 (1)
  197   217         115.4138593541        3140.5707765587      DE        A2 (4)
  198   186         116.0500747029        3157.8830763404      PI        B2 (3)
  199   134         116.0500747029        3157.8830763405      PI        B1 (2)
  200    77         116.6302075647        3173.6692940652     SG+        A1 (1)
  201   187         117.3574764986        3193.4592878596      PI        B2 (3)
  202   135         117.3574764986        3193.4592878598      PI        B1 (2)
  203    78         119.3136774500        3246.6902219565     SG+        A1 (1)
  204    79         123.6752447198        3365.3745011585     SG+        A1 (1)
  205    80         198.6923528990        5406.6937933838      DE        A1 (1)
  206   218         198.6923528990        5406.6937933838      DE        A2 (4)
  207   188         199.2435064354        5421.6914435744      PI        B2 (3)
  208   136         199.2435064354        5421.6914435746      PI        B1 (2)
  209    81         199.6017315102        5431.4392434287     SG+        A1 (1)
  210    82         217.6950165899        5923.7825606968     SG+        A1 (1)
  211   189         225.5827247167        6138.4180106816      PI        B2 (3)
  212   137         225.5827247167        6138.4180106818      PI        B1 (2)
  213    83         227.0109367172        6177.2816350039     SG+        A1 (1)
  214   190         395.7391907465       10768.6108458091      PI        B2 (3)
  215   138         395.7391907465       10768.6108458099      PI        B1 (2)
  216    84         397.2332294539       10809.2657058912     SG+        A1 (1)
  217    85         510.0894036234       13880.2383302750     SG+        A1 (1)
  218    86         896.6334460208       24398.6364689356     SG+        A1 (1)


  VSCF finished.

 @CHECKOUT-I, Total execution time (CPU/WALL):       50.55/      12.95 seconds.
--executable xvscf finished with status     0 in       12.98 seconds (walltime).
 --invoking executable--
/nfs/workspaces/public/cfour_mpi/bin/xvtran
 @GETMEM-I,  Allocated    3814 MB of main memory.
  Full RHF integral transformation
  Transformation of IIII integrals :
  1 pass through the AO integral file was required.
     4727849 AO integrals were read.
     8954339 MO integrals were written to HF2.
  Transformation of IIJJ integrals :
  1 pass through the AO integral file was required.
    10661895 AO integrals were read.
    14812810 MO integrals were written to HF2.
  Transformation of IJIJ integrals :
  1 pass through the AO integral file was required.
    20231656 AO integrals were read.
    28496929 MO integrals were written to HF2.
  Transformation of IJKL integrals :
  1 pass through the AO integral file was required.
    14932446 AO integrals were read.
    19376323 MO integrals were written to HF2.
  Summary of active molecular orbitals: 
------------------------------------------------------------------------
 
  Index      Eigenvalue    Symmetry    Index      Eigenvalue    Symmetry
------------------------------------------------------------------------
     1       -20.6448176        1       110         4.2271981        2
     2       -11.2592869        1       111         4.5689315        2
     3        -1.6800361        1       112         4.9767189        2
     4        -0.8223499        1       113         5.3744751        2
     5        -0.5197734        1       114         6.0493582        2
     6        -0.7620880        2       115         6.3238100        2
     7        -0.7620880        3       116         6.4642329        2
     8         0.0554148        1       117         6.6191079        2
     9         0.0783509        1       118         8.0828047        2
    10         0.1563304        1       119         9.0725228        2
    11         0.2258905        1       120        10.2805021        2
    12         0.2267659        1       121        11.1163508        2
    13         0.3027813        1       122        11.5169893        2
    14         0.4025398        1       123        11.8935379        2
    15         0.5070737        1       124        13.5044375        2
    16         0.5162607        1       125        15.4555280        2
    17         0.6561799        1       126        19.7760421        2
    18         0.7684979        1       127        28.1226620        2
    19         0.8021111        1       128        34.1483788        2
    20         0.8821859        1       129        48.2733867        2
    21         0.9144212        1       130        67.1978784        2
    22         0.9705661        1       131        98.7990470        2
    23         1.3796899        1       132        98.9035240        2
    24         1.4936139        1       133       103.3120039        2
    25         1.5570624        1       134       103.5150890        2
    26         1.6749049        1       135       116.0500747        2
    27         1.7700400        1       136       117.3574765        2
    28         1.8022234        1       137       199.2435064        2
    29         2.1175678        1       138       225.5827247        2
    30         2.2494066        1       139       395.7391907        2
    31         2.2519216        1       140         0.0650539        3
    32         2.3574851        1       141         0.1539561        3
    33         2.3995363        1       142         0.2140321        3
    34         2.7083439        1       143         0.3518469        3
    35         3.1799064        1       144         0.4125661        3
    36         3.2057549        1       145         0.6178303        3
    37         3.3402946        1       146         0.7497853        3
    38         3.7918159        1       147         0.8536345        3
    39         4.0149682        1       148         0.8680497        3
    40         4.1765549        1       149         1.1438124        3
    41         4.3710797        1       150         1.4607096        3
    42         4.4926040        1       151         1.5197797        3
    43         4.7611717        1       152         1.8447181        3
    44         5.2112954        1       153         2.0512723        3
    45         5.2503644        1       154         2.2657659        3
    46         5.9376438        1       155         2.3628489        3
    47         6.1356632        1       156         2.4534623        3
    48         6.3635793        1       157         2.6104621        3
    49         6.3653399        1       158         3.1092741        3
    50         6.8311008        1       159         3.7286364        3
    51         7.2122415        1       160         4.0550879        3
    52         8.3491135        1       161         4.2271981        3
    53         8.7650965        1       162         4.5689315        3
    54         8.9946878        1       163         4.9767189        3
    55        10.0233121        1       164         5.3744751        3
    56        10.6147419        1       165         6.0493582        3
    57        11.4045935        1       166         6.3238100        3
    58        11.4354995        1       167         6.4642329        3
    59        12.5333357        1       168         6.6191079        3
    60        13.2267427        1       169         8.0828047        3
    61        13.3304678        1       170         9.0725228        3
    62        14.2281601        1       171        10.2805021        3
    63        15.7412677        1       172        11.1163508        3
    64        19.1783005        1       173        11.5169893        3
    65        22.1150569        1       174        11.8935379        3
    66        26.8407824        1       175        13.5044375        3
    67        29.4413861        1       176        15.4555280        3
    68        36.5244148        1       177        19.7760421        3
    69        37.6083536        1       178        28.1226620        3
    70        47.2831175        1       179        34.1483788        3
    71        48.9347693        1       180        48.2733867        3
    72        65.2561966        1       181        67.1978784        3
    73        69.0131115        1       182        98.7990470        3
    74        98.8594539        1       183        98.9035240        3
    75        98.9769627        1       184       103.3120039        3
    76       103.3869851        1       185       103.5150890        3
    77       103.6446352        1       186       116.0500747        3
    78       115.4138594        1       187       117.3574765        3
    79       116.6302076        1       188       199.2435064        3
    80       119.3136775        1       189       225.5827247        3
    81       123.6752447        1       190       395.7391907        3
    82       198.6923529        1       191         0.2267659        4
    83       199.6017315        1       192         0.5162607        4
    84       217.6950166        1       193         0.7684979        4
    85       227.0109367        1       194         0.9144212        4
    86       397.2332295        1       195         1.4936139        4
    87       510.0894036        1       196         1.7700400        4
    88       896.6334460        1       197         2.1175678        4
    89         0.0650539        2       198         2.2519216        4
    90         0.1539561        2       199         2.3995363        4
    91         0.2140321        2       200         3.1799064        4
    92         0.3518469        2       201         3.7918159        4
    93         0.4125661        2       202         4.1765549        4
    94         0.6178303        2       203         4.4926040        4
    95         0.7497853        2       204         5.2112954        4
    96         0.8536345        2       205         5.9376438        4
    97         0.8680497        2       206         6.3653399        4
    98         1.1438124        2       207         6.8311008        4
    99         1.4607096        2       208         8.3491135        4
   100         1.5197797        2       209        10.6147419        4
   101         1.8447181        2       210        11.4045935        4
   102         2.0512723        2       211        12.5333357        4
   103         2.2657659        2       212        13.3304678        4
   104         2.3628489        2       213        26.8407824        4
   105         2.4534623        2       214        47.2831175        4
   106         2.6104621        2       215        98.8594539        4
   107         3.1092741        2       216       103.3869851        4
   108         3.7286364        2       217       115.4138594        4
   109         4.0550879        2       218       198.6923529        4
------------------------------------------------------------------------
  -20.6448175769689       -11.2592869183533       -1.68003614676522     
 -0.822349945719099      -0.519773355280399      -0.762087975242493     
 -0.762087975255564       5.541482647986575E-002  7.835090472775073E-002
  0.156330400906605       0.225890547407649       0.226765877706347     
  0.302781324916659       0.402539799478714       0.507073728591482     
  0.516260691868459       0.656179885717361       0.768497941151495     
  0.802111086283161       0.882185861846618       0.914421188011342     
  0.970566118111655        1.37968987869985        1.49361389173622     
   1.55706240263933        1.67490487785797        1.77004003249515     
   1.80222337914487        2.11756783620643        2.24940656048450     
   2.25192161040401        2.35748510117959        2.39953628268438     
   2.70834387244143        3.17990639820915        3.20575493741313     
   3.34029455720900        3.79181586145460        4.01496821271977     
   4.17655485910280        4.37107968491681        4.49260397836400     
   4.76117173814622        5.21129541229449        5.25036436506821     
   5.93764381889662        6.13566318223683        6.36357930680416     
   6.36533985674035        6.83110082599800        7.21224154829621     
   8.34911353581162        8.76509653255325        8.99468781795423     
   10.0233121338601        10.6147418887037        11.4045935279146     
   11.4354995423683        12.5333357196347        13.2267427007102     
   13.3304678021241        14.2281601290005        15.7412677002337     
   19.1783004533255        22.1150568643461        26.8407823553387     
   29.4413861368604        36.5244148190389        37.6083535965328     
[...]
 Convergence information after     5 iterations: 
 Largest element of residual vector : -0.10297874E-02.
 Largest element of DIIS residual   : -0.45490987E-03.
 Convergence information after     6 iterations: 
 Largest element of residual vector : -0.30952075E-03.
 Largest element of DIIS residual   : -0.81472332E-04.
 Convergence information after     7 iterations: 
 Largest element of residual vector : -0.54215907E-04.
 Largest element of DIIS residual   : -0.25027279E-04.
 Convergence information after     8 iterations: 
 Largest element of residual vector : -0.15283552E-04.
 Largest element of DIIS residual   :  0.82234654E-05.
 Convergence information after     9 iterations: 
 Largest element of residual vector :  0.42969668E-05.
 Largest element of DIIS residual   :  0.19468696E-05.
 Convergence information after    10 iterations: 
 Largest element of residual vector :  0.15380534E-05.
 Largest element of DIIS residual   :  0.80554986E-06.
 Convergence information after    11 iterations: 
 Largest element of residual vector :  0.41966662E-06.
 Largest element of DIIS residual   :  0.23181099E-06.
 Convergence information after    12 iterations: 
 Largest element of residual vector :  0.16134187E-06.
 Largest element of DIIS residual   :  0.10244349E-06.
 Convergence information after    13 iterations: 
 Largest element of residual vector :  0.63635809E-07.
 Largest element of DIIS residual   :  0.42443078E-07.
 Perturbed amplitude equations converged in    13 iterations.
  Dominant contributions to perturbed wavefunction:
    7    7  142   37   0.2328796514 ABAB
    7    7   37  142   0.2328796514 ABAB
    5    5  142   53   0.2182264178 ABAB
    5    5   53  142   0.2182264178 ABAB
    7    7  142   53   0.1980188875 ABAB
    7    7   53  142   0.1980188875 ABAB
    7    7  142   48   0.1952766174 ABAB
    7    7   48  142   0.1952766174 ABAB
    5    5  142   43   0.1937281153 ABAB
    5    5   43  142   0.1937281153 ABAB
    7    7  144   53   0.1798356987 ABAB
    7    7   53  144   0.1798356987 ABAB
    7    7  142   63   0.1797154222 ABAB
    7    7   63  142   0.1797154222 ABAB
    5    5  142   37   0.1673237257 ABAB
    5    5   37  142   0.1673237257 ABAB
    7    6   37   91   0.1617332156 ABAB
    6    7   91   37   0.1617332156 ABAB
    7    7  145   37   0.1596091873 ABAB
    7    7   37  145   0.1596091873 ABAB
  norm of converged amps    3.11664662614396     
 Starting iterative solution of the perturbed Lambda equations.
 The DIIS procedure is used to accelerate convergence.
 Convergence criterion is 10**(-7).
 Maximum number of iterations is 100.
 Convergence information after     1 iterations: 
 Largest element of residual vector : -0.60089205E-01.
 Largest element of DIIS residual   : -0.60089205E-01.
 Convergence information after     2 iterations: 
 Largest element of residual vector :  0.52896238E-02.
 Largest element of DIIS residual   :  0.66732729E-02.
 Convergence information after     3 iterations: 
 Largest element of residual vector : -0.31723437E-02.
 Largest element of DIIS residual   : -0.28067481E-02.
 Convergence information after     4 iterations: 
 Largest element of residual vector : -0.19324589E-02.
 Largest element of DIIS residual   : -0.14218301E-02.
 Convergence information after     5 iterations: 
 Largest element of residual vector : -0.96583489E-03.
 Largest element of DIIS residual   : -0.42406784E-03.
 Convergence information after     6 iterations: 
 Largest element of residual vector : -0.28935273E-03.
 Largest element of DIIS residual   : -0.73909103E-04.
 Convergence information after     7 iterations: 
 Largest element of residual vector : -0.49120002E-04.
 Largest element of DIIS residual   : -0.21126744E-04.
 Convergence information after     8 iterations: 
 Largest element of residual vector : -0.12741779E-04.
 Largest element of DIIS residual   :  0.73683055E-05.
 Convergence information after     9 iterations: 
 Largest element of residual vector :  0.39102045E-05.
 Largest element of DIIS residual   :  0.17308686E-05.
 Convergence information after    10 iterations: 
 Largest element of residual vector :  0.13744783E-05.
 Largest element of DIIS residual   :  0.74323135E-06.
 Convergence information after    11 iterations: 
 Largest element of residual vector :  0.39747403E-06.
 Largest element of DIIS residual   :  0.22509713E-06.
 Convergence information after    12 iterations: 
 Largest element of residual vector :  0.15430779E-06.
 Largest element of DIIS residual   :  0.96300740E-07.
 Perturbed Lambda equations converged in    12 iterations.
  Dominant contributions to perturbed wavefunction:
    7    7  142   37   0.2248446989 ABAB
    7    7   37  142   0.2248446989 ABAB
    5    5  142   53   0.2096968274 ABAB
    5    5   53  142   0.2096968274 ABAB
    7    7  142   53   0.1903780860 ABAB
    7    7   53  142   0.1903780860 ABAB
    7    7  142   48   0.1886797374 ABAB
    7    7   48  142   0.1886797374 ABAB
    5    5  142   43   0.1863590071 ABAB
    5    5   43  142   0.1863590071 ABAB
    7    7  142   63   0.1733440794 ABAB
    7    7   63  142   0.1733440794 ABAB
    7    7  144   53   0.1731218674 ABAB
    7    7   53  144   0.1731218674 ABAB
    5    5  142   37   0.1604397186 ABAB
    5    5   37  142   0.1604397186 ABAB
    7    6   37   91   0.1547042695 ABAB
    6    7   91   37   0.1547042695 ABAB
    7    7  145   37   0.1546840236 ABAB
    7    7   37  145   0.1546840236 ABAB
        The DBOC first-order density matrix is being calculated 
             (Symmetry block 3, perturbation   2)
 term   11.7210718959064     
 final tnorm  0.912503336387746     
  norm contr. I: |<0|L dT/dx|0>|^2   0.000000000000000E+000
  norm contr. II: <0|[nabla(1+L)e-T][nabla e^T]|0>   11.7210718959064     
  total norm contribution   11.7210718959064     
 oo  1.173646376180019E-002
 vv  -78.2541030370036     
 vo  8.751549317744569E-003
  Correlated perturbed 1-el contribution to DBOC  -78.2336150239240       cm**-1
  SUM_I |dc_I/dx|^2 contribution to DBOC   39.2116594024654       cm**-1
 
 
  The total diagonal Born-Oppenheimer correction (DBOC) is:      0.0039011723 a.u.
  The total diagonal Born-Oppenheimer correction (DBOC) is:        856.208344 cm-1
 
 Total CC energy including DBOC  -113.081761256112     
 First-order density matrix is being calculated  (Symmetry block 3, perturbation   2)
 Calculation of the contributions of <pq||rs> to dI(i,j)/dx required   2.1 seconds.
 Calculation of the contributions of <pq||rs> to dI(a,b)/dx required  16.5 seconds.
 Calculation of the contributions of <pq||rs> to dI(i,a)/dx required   9.5 seconds.
 First-order Z-vector equations are solved for 1 perturbation.
 Convergence reached after  17 iterations.
        U*G(pq,rs) contribution is being calculated
             (Symmetry block 3, perturbation   2)

 CCSD contribution to force constants 

        0.0000000000        0.0000000000        0.0000000000
        0.0000000000        0.0000000000        0.0000000000
        0.0000000000        0.0000000000        0.0000000000
        0.0000000000        0.0000000000        0.0000000000
        0.0000000000        0.0000000000        0.0000000000
        0.0000000000        0.0000000000        0.0000000000
        0.0000000000        0.0000000000        0.0000000000
        0.0000000000        0.0000000000        0.0000000000
        0.0000000000        0.0000000000        0.0000000000
        0.0000000000        0.0000000000        0.0000000000
        0.0000000000        0.0000000000        0.0000000000
        0.0000000000      -19.8963807242       19.8963807242

 CCSD contribution to dipole derivatives 

        0.0000000000        0.0000000000        0.0000000000
        0.0000000000        0.0000000000        0.0000000000
        0.0000000000        0.0000000000        0.0000000000
        0.0000000000        0.0000000000       -0.0351708260
        0.0000000000        0.0000000000        0.0000000000
        0.0000000000        0.0000000000        0.0000000000
 @CHECKOUT-I, Total execution time (CPU/WALL):     1040.08/     381.53 seconds.
--executable xsdcc finished with status     0 in      381.74 seconds (walltime).
 --invoking executable--
/nfs/workspaces/public/cfour_mpi/bin/xanti
 @GETMEM-I,  Allocated    3814 MB of main memory.
 CCSD MO derivative gammas will be sorted to Mulliken order.
 @CHECKOUT-I, Total execution time (CPU/WALL):       12.26/      43.58 seconds.
--executable xanti finished with status     0 in       43.71 seconds (walltime).
 --invoking executable--
/nfs/workspaces/public/cfour_mpi/bin/xbcktrn
 @GETMEM-I,  Allocated    3814 MB of main memory.
 CCSD MO derivative gammas will be transformed to the AO basis.
 @CHECKOUT-I, Total execution time (CPU/WALL):       23.09/       3.36 seconds.
--executable xbcktrn finished with status     0 in        3.40 seconds (walltime).
 --invoking executable--
/nfs/workspaces/public/cfour_mpi/bin/xvdint
 @GETMEM-I,  Allocated    3814 MB of main memory.
 One- and two-electron integral derivatives are calculated
 for RHF-CC/MBPT hessians and dipole derivatives.
 Spherical gaussians are used.
  magnet F F
                    8722  records have been written to the Sort file.
  Total length of Sort file :             178609116  words.
 Evaluation of 2el integral derivatives

                      Two-electron integral gradient
                      ------------------------------

                         C #1 z     0.0000000000
                         O #2 z     0.0000000000


 C #1       0.0000000000           -2.5269608223            0.0000000000
 O #2       0.0000000000            2.5269608223            0.0000000000


 Evaluation of 2e integral derivatives required  342.70 seconds.
  contribution to Hessian
        0.0000000000        0.0000000000        0.0000000000
        0.0000000000       -2.5269608223        2.5269608223
 @CHECKOUT-I, Total execution time (CPU/WALL):      342.70/      71.30 seconds.
--executable xvdint finished with status     0 in       71.42 seconds (walltime).
 --invoking executable--
/nfs/workspaces/public/cfour_mpi/bin/xanti
 @GETMEM-I,  Allocated    3814 MB of main memory.
 CCSD MO gammas will be sorted to Mulliken order.
 @CHECKOUT-I, Total execution time (CPU/WALL):       14.16/      27.80 seconds.
--executable xanti finished with status     0 in       27.88 seconds (walltime).
 --invoking executable--
/nfs/workspaces/public/cfour_mpi/bin/xbcktrn
 @GETMEM-I,  Allocated    3814 MB of main memory.
 CCSD MO gammas will be transformed to the AO basis.
 @CHECKOUT-I, Total execution time (CPU/WALL):       28.98/       7.71 seconds.
--executable xbcktrn finished with status     0 in        7.74 seconds (walltime).
 --invoking executable--
/nfs/workspaces/public/cfour_mpi/bin/xvdint
 @GETMEM-I,  Allocated    3814 MB of main memory.
 One- and two-electron integral derivatives are calculated
 for RHF-CC/MBPT hessians and dipole derivatives.
 Spherical gaussians are used.
  magnet F F

                     Kinetic energy integral gradient
                     --------------------------------

                         C #1 z    -2.0501428126
                         O #2 z     2.0501428126


 C #1       0.0000000000            0.0000000000           -2.0501428126
 O #2       0.0000000000            0.0000000000            2.0501428126



                   Nuclear attraction integral gradient
                   ------------------------------------

                         C #1 z    28.9517562818
                         O #2 z   -28.9517562818


 C #1       0.0000000000            0.0000000000           28.9517562818
 O #2       0.0000000000            0.0000000000          -28.9517562818



                      Reorthonormalization gradient
                      -----------------------------

                         C #1 z     0.0000000000
                         O #2 z     0.0000000000


 C #1       0.0000000000            0.0000000000            0.0000000000
 O #2       0.0000000000            0.0000000000            0.0000000000



                     Kinetic energy integral Hessian
                     -------------------------------


           Symmetry 1

           C #1 z      O #2 z

 C #1 z   -0.142175
 O #2 z    0.142175   -0.142175


           Symmetry 2

           C #1 x      O #2 x

 C #1 x   -4.455444
 O #2 x    4.455444   -4.455444


           Symmetry 3

           C #1 y      O #2 y

 C #1 y   -4.455444
 O #2 y    4.455444   -4.455444




           C #1 x      C #1 y      C #1 z      O #2 x      O #2 y      O #2 z

 C #1 x   -4.455444
 C #1 y    0.000000   -4.455444
 C #1 z    0.000000    0.000000   -0.142175

 O #2 x    4.455444    0.000000    0.000000   -4.455444
 O #2 y    0.000000    4.455444    0.000000    0.000000   -4.455444
 O #2 z    0.000000    0.000000    0.142175    0.000000    0.000000   -0.142175




                   Nuclear attraction integral Hessian
                   -----------------------------------


           Symmetry 1

           C #1 z      O #2 z

 C #1 z  -10.918410
 O #2 z   10.918410  -10.918410


           Symmetry 2

           C #1 x      O #2 x

 C #1 x   37.487939
 O #2 x  -37.487939   37.487939


           Symmetry 3

           C #1 y      O #2 y

 C #1 y   37.487939
 O #2 y  -37.487939   37.487939




           C #1 x      C #1 y      C #1 z      O #2 x      O #2 y      O #2 z

 C #1 x   37.487939
 C #1 y    0.000000   37.487939
 C #1 z    0.000000    0.000000  -10.918410

 O #2 x  -37.487939    0.000000    0.000000   37.487939
 O #2 y    0.000000  -37.487939    0.000000    0.000000   37.487939
 O #2 z    0.000000    0.000000   10.918410    0.000000    0.000000  -10.918410




                Highest order reorthonormalization Hessian
                ------------------------------------------


           Symmetry 1

           C #1 z      O #2 z

 C #1 z    0.000000
 O #2 z    0.000000    0.000000


           Symmetry 2

           C #1 x      O #2 x

 C #1 x    0.000000
 O #2 x    0.000000    0.000000


           Symmetry 3

           C #1 y      O #2 y

 C #1 y    0.000000
 O #2 y    0.000000    0.000000




           C #1 x      C #1 y      C #1 z      O #2 x      O #2 y      O #2 z




                Electronic contributions to dipole moment
                -----------------------------------------

                               au             Debye

                    z     -1.00845588     -2.56323963

  Conversion factor used: 1 a.u. =   2.54174691 Debye 



   Electronic contributions to static part of dipole moment derivatives
   --------------------------------------------------------------------


                     Total dipole moment derivatives
                     -------------------------------


           Symmetry 1
                              Ez

               C #1 z    -5.88818538
               O #2 z    -8.11181462

           Symmetry 2
                              Ex

               C #1 x    -5.92292439
               O #2 x    -8.07707561

           Symmetry 3
                              Ey

               C #1 y    -5.92292439
               O #2 y    -8.07707561



                       Ex          Ey          Ez

      C #1    x   -5.922924    0.000000    0.000000
      C #1    y    0.000000   -5.922924    0.000000
      C #1    z    0.000000    0.000000   -5.888185

      O #2    x   -8.077076    0.000000    0.000000
      O #2    y    0.000000   -8.077076    0.000000
      O #2    z    0.000000    0.000000   -8.111815

 Evaluation of 1e integral derivatives required    1.71 seconds.
                    8815  records have been written to the Sort file.
  Total length of Sort file :             180513570  words.
 Evaluation of 2el integral derivatives

                      Two-electron integral gradient
                      ------------------------------

                         C #1 z   -11.4679559641
                         O #2 z    11.4679559641


 C #1       0.0000000000            0.0000000000          -11.4679559641
 O #2       0.0000000000            0.0000000000           11.4679559641


 Evaluation of 2e integral derivatives required  752.01 seconds.

                            Molecular gradient
                            ------------------

                         C #1 z    -1.1606182379
                         O #2 z     1.1606182379


 C #1       0.0000000000            0.0000000000           -1.1606182379
 O #2       0.0000000000            0.0000000000            1.1606182379


  Molecular gradient norm 0.164E+01

                            Molecular hessian
                            -----------------


           Symmetry 1

           C #1 z      O #2 z

 C #1 z  121.410392
 O #2 z -121.410392  121.410392


           Symmetry 2

           C #1 x      O #2 x

 C #1 x   20.535606
 O #2 x  -20.535606   20.535606


           Symmetry 3

           C #1 y      O #2 y

 C #1 y   20.535606
 O #2 y  -20.535606   20.535606




           C #1 x      C #1 y      C #1 z      O #2 x      O #2 y      O #2 z

 C #1 x   20.535606
 C #1 y    0.000000   20.535606
 C #1 z    0.000000    0.000000  121.410392

 O #2 x  -20.535606    0.000000    0.000000   20.535606
 O #2 y    0.000000  -20.535606    0.000000    0.000000   20.535606
 O #2 z    0.000000    0.000000 -121.410392    0.000000    0.000000  121.410392




                           Total dipole moment
                           -------------------

                               au             Debye

                    z     -0.32842093     -0.83476288

  Conversion factor used: 1 a.u. =   2.54174691 Debye 



                     Total dipole moment derivatives
                     -------------------------------


           Symmetry 1
                              Ez

               C #1 z     0.61039507
               O #2 z    -0.61039507

           Symmetry 2
                              Ex

               C #1 x    -0.19646647
               O #2 x     0.19646647

           Symmetry 3
                              Ey

               C #1 y    -0.19646647
               O #2 y     0.19646647



                       Ex          Ey          Ez

      C #1    x   -0.196466    0.000000    0.000000
      C #1    y    0.000000   -0.196466    0.000000
      C #1    z    0.000000    0.000000    0.610395

      O #2    x    0.196466    0.000000    0.000000
      O #2    y    0.000000    0.196466    0.000000
      O #2    z    0.000000    0.000000   -0.610395

 @CHECKOUT-I, Total execution time (CPU/WALL):      753.70/     126.41 seconds.
--executable xvdint finished with status     0 in      126.53 seconds (walltime).
 --invoking executable--
/nfs/workspaces/public/cfour_mpi/bin/xjoda
  @GTFLGS-I, Hessian will be transformed to curvilinear coordinates.
  @GTFLGS-I, Hessian will be transformed to curvilinear coordinates.
  igrd and ihes are                      0                     1
  gradient from JOBARC 
   0.000000000000000   0.000000000000000  -1.160618237930284
   0.000000000000000   0.000000000000000   1.160618237930284
 
  @PROJFCM-I, Projecting force constant matrix onto totally symmetric subspace.
  Largest difference between matrix elements of symmetrized
  and unsymmetrized FCM :     0.1815770645E-08.
  read isotopes from ZMAT file 
 
  Summary of diagonal Born-Oppenheimer correction at the correlated level
  The total diagonal Born-Oppenheimer correction (DBOC) is:      0.0039011723 a.u.
  The total diagonal Born-Oppenheimer correction (DBOC) is:        856.208344 cm-1
  The total diagonal Born-Oppenheimer correction (DBOC) is:            10.243 kJ/mole
  hellooooooo 
  readis is  F
 
 @CHECKOUT-I, Total execution time (CPU/WALL):        0.02/       0.10 seconds.
--executable xjoda finished with status     0 in        0.13 seconds (walltime).
  The final electronic energy is      -113.081761256111747 a.u. 
  This computation required                         4255.34 seconds (walltime).
