 --invoking executable--
/nfs/workspaces/public/cfour_mpi/bin/xjoda


   *************************************************************************
         <<<     CCCCCC     CCCCCC   |||     CCCCCC     CCCCCC   >>>
       <<<      CCC        CCC       |||    CCC        CCC         >>>
      <<<      CCC        CCC        |||   CCC        CCC            >>>
    <<<        CCC        CCC        |||   CCC        CCC              >>>
      <<<      CCC        CCC        |||   CCC        CCC            >>>
       <<<      CCC        CCC       |||    CCC        CCC         >>>
         <<<     CCCCCC     CCCCCC   |||     CCCCCC     CCCCCC   >>>
   *************************************************************************

     ****************************************************************
     * CFOUR Coupled-Cluster techniques for Computational Chemistry *
     ****************************************************************
 

   Department of Chemistry                Institut fuer Physikalische Chemie
   University of Florida                  Universitaet Mainz
   Gainesville, FL 32611, USA             D-55099 Mainz, Germany

   Department of Chemistry                Fakultaet fuer Chemie und Biowiss.
   Johns Hopkins University               Karlsruher Institut fuer Technologie
   Baltimore, MD 21218, USA               D-76131 Karlsruhe, Germany

   Department of Chemistry                Department of Physical Chemistry
   Southern Methodist University          Eotvos Lorand University
   Dallas, TX 75275, USA                  H-1053 Budapest, Hungary

 
                       Version 2.1
 
                     vincent.theory.phys.ucl.ac.uk                     
                     Sun  2 Mar 02:28:27 GMT 2025                      
                     integer*8 version is running
 
********************************************************************************
*                          Input from ZMAT file                                *
********************************************************************************
Carbon Monoxide DBOC calculation                                                
C                                                                               
O 1 r                                                                           
                                                                                
r=1.1793103448275861                                                            
                                                                                
                                                                                
*CFOUR(CALC=CCSD,BASIS=AUG-PCVQZ,SCF_CONV=10                                    
CC_CONV=14,DBOC=ON,MEMORY=500000000                                             
ZFIELD=-200)                                                                    
                                                                                
%isotopes                                                                       
12                                                                              
18                                                                              
********************************************************************************
  @GTFLGS-I, Hessian will be transformed to curvilinear coordinates.
    -------------------------------------------------------------------
                    CFOUR Control Parameters 
    -------------------------------------------------------------------
        External           Internal           Value            Units
          Name               Name
    -------------------------------------------------------------------
       ABCDTYPE             IABCDT         STANDARD    [  0]    ***   
       ANHARMONIC           IANHAR         OFF         [  0]    ***   
       ANH_ALGORIT          IANALG         STANDARD    [  0]    ***   
       ANH_DERIVAT          IANDER         SECOND      [  1]    ***   
       ANH_MODE             ANHMOD         VIBRATION   [  0]    ***   
       ANH_STEPSIZ          ICUBST             50000          x 10-6  
       ANH_SYMMETR          IANHSM         ABELIAN     [  0]    ***   
       AO_LADDERS           IAOLAD         SINGLEPASS  [  1]    ***   
       AV_SCF               IAVSCF         OFF         [  0]    ***   
       BASIS                IBASIS         AUG-PCVQZ   [ 52]    ***   
       BOTHVECTORS          BOTHVC         OFF         [  0]    ***   
       BOX_POTENT           IPIAB          OFF         [  0]    ***   
       BREIT                IBREIT         OFF         [  0]    ***   
       BRUCK_CONV           IBRTOL          10D-  4             ***   
       BRUECKNER            IBRKNR         OFF         [  0]    ***   
       BUFFERSIZE           IBUFFS              4096            ***   
       CACHE_RECS           ICHREC             10               ***   
       CALCLEVEL            ICLLVL         CCSD        [ 10]    ***   
       CCORBOPT             ICCORB         OFF         [  0]  x 0.01  
       CC_CONV              ICCCNV          10D- 14             ***   
       CC_EXPORDER          ICCEOR              5               ***   
       CC_EXTRAPOL          ICCEXT         DIIS        [  1]    ***   
       CC_GUESS             ICCGES         MP2         [  0]    ***   
       CC_MAXCYC            ICCCYC            100              cycles 
       CC_PROGRAM           ICCPRO         VCC         [  0]    ***   
       CHARGE               ICHRGE              0               ***   
       CHOLESKY             ICHOLE         OFF         [  0]    ***   
       CIS_CONV             ICISTL              5               ***   
       COMM_SIZE            IPSIZE            ***               ***   
       CONSTANT             ICONST         OLD         [  1]    ***   
       CONTINUUM            ICONTU         NONE        [  0]    ***   
       CONTRACTION          ICNTYP         GENERAL     [  1]    ***   
       COORDINATES          ICOORD         INTERNAL    [  0]    ***   
       CPHF_CONVER          ICPHFT          10D- 16             ***   
       CPHF_MAXCYC          ICPHFC             64              cycles 
       CUBIC                ICUBIC         OFF         [  0]    ***   
       CURVILINEAR          ICURVY         ON          [  1]    ***   
       DBOC                 IDBOC          ON          [  1]    ***   
       DCT                  IDCT           OFF         [  0]    ***   
       DERIV_LEV            IDRLVL         SECOND      [  2]    ***   
       DEVMEM_SIZE          IDVMEM          50000000           MByte  
       DIAG_MRCC            IEOMST          10D-  0             ***   
       DIFF_TYPE            IDIFTY         RELAXED     [  0]    ***   
       DIRECT               IDIRCT         OFF         [  0]    ***   
       DROPMO               IDRPMO      NONE         
       ECP                  IECP           OFF         [  0]    ***   
       EIGENVECTOR          IVEC                1               ***   
       EL_ANHARM            IELANH         OFF         [  0]    ***   
       EOMFOLLOW            IEOMSR         ENERGY      [  0]    ***   
       EOMIP                IEOMIP         OFF         [  0]    ***   
       EOMLEVEL             HBARFM         SAME        [  0]    ***   
       EOM_MRCC             IMRCCE         NEW         [  1]    ***   
       EOM_NONIT            EOMNON         OFF         [  0]    ***   
       EOM_NSING            IEOMSI          10D-  0             ***   
       EOM_NSTATES          IMRCCD         DAVIDSON    [  0]    ***   
       EOM_NTRIP            IEOMTR          10D-  0             ***   
       EOM_ORDER            IEXORD         ENERGY      [  0]    ***   
       EOM_PROPSTA          IEOMST              0               ***   
       ESTATE_CONV          IEXTOL          10D-  5             ***   
       ESTATE_DIAG          IEXDIG         ITERATIVE   [  0]    ***   
       ESTATE_LOCK          IESLOC         ON          [  1]    ***   
       ESTATE_MAXC          IEXMXC             40               ***   
       ESTATE_PROP          IEXPRP         OFF         [  0]    ***   
       EVAL_HESS            IRECAL              0            # of cyc.
       EXCITATION           IEXCIT              0               ***   
       EXCITE               IEXCIT         NONE        [  0]    ***   
       EXTERN_POT           IEXPOT         OFF         [  0]    ***   
       FCGRADNEW            IFCGNW         OFF         [  0]    ***   
       FC_FIELD             IFINFC              0             x 10-6  
       FD_CALTYPE           IFDCAL         GRADONLY    [  0]    ***   
       FD_PROJECT           IFDPRJ         OFF         [  1]    ***   
       FD_STEPSIZE          IDISFD              0            10-4 bohr
       FD_USEGROUP          IFDGRP         FULL        [  0]    ***   
       FILE_RECSIZ          IFLREC              4096           words  
       FINITE_PERT          IFIPER              0             x 10-6  
       FIXGEOM              IFIXGM         OFF         [  0]    ***   
       FOCK                 IFOCK          AO          [  1]    ***   
       FREQ_ALGORI          IVIALG         STANDARD    [  0]    ***   
       FROZEN_CORE          IFROCO         OFF         [  0]    ***   
       GAMMA_ABCD           IGABCD         STORE       [  0]    ***   
       GAMMA_ABCI           IGABCI         STORE       [  0]    ***   
       GENBAS_1             IGNBS1              0               ***   
       GENBAS_2             IGNBS2              0               ***   
       GENBAS_3             IGNBS3              0               ***   
       GENBAS_4             IGNBS4              0               ***   
       GEO_CONV             ICONTL              5              H/bohr 
       GEO_MAXCYC           IOPTCY             50               ***   
       GEO_MAXSTEP          IMXSTP            300            millibohr
       GEO_METHOD           INR            SINGLE_POINT[  5]    ***   
       GIAO                 IGIAO          OFF         [  1]    ***   
       GIMIC                IGIMIC         OFF         [  0]    ***   
       GRID                 IGRID          OFF         [  0]    ***   
       GRID_ALGO            IGALGO         SERIAL      [  0]    ***   
       GUESS                IGUESS         MOREAD      [  0]    ***   
       HBAR                 IHBAR          OFF         [  0]    ***   
       HESS_TYPE            IHESTP         SCF         [  0]    ***   
       HF2_FILE             IHF2Fl         USE         [  1]    ***   
       HFSTABILITY          ISTABL         OFF         [  0]    ***   
       INCORE               INCORE         OFF         [  0]    ***   
       INPUT_MRCC           IMRCC          ON          [  1]    ***   
       INTEGRALS            INTTYP         VMOL        [  1]    ***   
       JODA_PRINT           IJPRNT              0               ***   
       KEYWORD_OUT          IDMPKW         NO          [  0]    ***   
       LINDEP_TOL           ILINDP              8               ***   
       LINEQ_CONV           IZTACN          10D-  7           cycles  
       LINEQ_EXPOR          ILMAXD              5               ***   
       LINEQ_MAXCY          ILMAXC            100               ***   
       LINEQ_TYPE           ILTYPE         DIIS        [  1]    ***   
       LOCK_ORBOCC          ILOCOC         OFF         [  0]    ***   
       MEMORY_SIZE          IMEMSZ         500000000           words  
       MEM_UNIT             IMEMU          INTEGERWORDS[  0]    ***   
       MRCC                 IMRCCC         OFF         [  0]    ***   
       MULTIPLICTY          IMULTP              1               ***   
       NACOUPLING           IVCOUP         OFF         [  0]    ***   
       NEGEVAL              IDIE           ABORT       [  0]    ***   
       NEWNORM              INEWNO         OFF         [  0]    ***   
       NON-HF               INONHF         OFF         [  0]    ***   
       NTOP_TAMP            ITOPT2             15               ***   
       NUC_MODEL            INUCMO         POINT       [  0]    ***   
       OCCUPATION           IOCCU   ESTIMATED BY SCF 
       OPEN-SHELL           IOPEN          SPIN-ORBITAL[  0]    ***   
       OPTVIB               IOPTVB         OFF         [  0]    ***   
       ORBITALS             IORBTP         STANDARD    [  0]    ***   
       PARALLEL             IPARAL         ON          [  1]    ***   
       PARA_INT             IPINTS         ON          [  1]    ***   
       PARA_PRINT           IPPRIN              0               ***   
       PERT_ORB             IPTORB         STANDARD    [  0]    ***   
       POINTS               IGRDFD              0               ***   
       PRINT                IPRNT               0               ***   
       PROPS                IPROPS         OFF         [  0]    ***   
       PROP_INTEGR          IINTYP         INTERNAL    [  0]    ***   
       PSI                  IPSI           OFF         [  0]    ***   
       QC_ALG               IQCALG         FLM         [  0]    ***   
       QC_LINALG            IQCLIN         TRIDIAG     [  2]    ***   
       QC_MAXCYC            IQCMAX          10D-100           cycles  
       QC_MAXSCFCY          IQCMSC          10D- 15           cycles  
       QC_RTRUST            IQCRTR          10D-  0           x 10-3  
       QC_SKIPSCF           IQCSKI         OFF         [  0]    ***   
       QC_START             IQCSTA          10D-  1             ***   
       QRHFGUESS            IQGUES         OFF         [  0]    ***   
       QUARTIC              IQUART         OFF         [  0]    ***   
       RAMAN_INT            IRAMIN         OFF         [  0]    ***   
       RAMAN_ORB            IRAMRE         UNRELAXED   [  0]    ***   
       RDO                  IRDOFM         ON          [  1]    ***   
       REDUCE_REPR          REDREP         Ir          [  0]    ***   
       REFERENCE            IREFNC         RHF         [  0]    ***   
       RELATIVIST           IRELAT         OFF         [  0]    ***   
       RELAX_DENS           IRDENS         ON          [  1]    ***   
       RESET_FLAGS          IRESET         OFF         [  0]    ***   
       RESTART_CC           ICCRES         OFF         [  0]    ***   
       ROT_EVEC             ROTVEC              0               ***   
       SAVE_INTS            ISVINT         OFF         [  0]    ***   
       SCALE_ON             ISTCRT              0               ***   
       SCF_CONV             ISCFCV          10D- 10             ***   
       SCF_DAMPING          IDAMP               0             x 10-3  
       SCF_EXPORDE          IRPPOR              6               ***   
       SCF_EXPSTAR          IRPPLS              8               ***   
       SCF_EXTRAPO          IRPP           ON          [  1]    ***   
       SCF_MAXCYC           ISCFCY            150              cycles 
       SCF_NOSTOP           ISCFST         OFF         [  0]    ***   
       SCF_PRINT            ISCFPR              0               ***   
       SCF_PROG             ISCFPR         SCF         [  0]    ***   
       SD_FIELD             IFINSD              0             x 10-6  
       SOPERT               IPERSO         OFF         [  0]    ***   
       SPHERICAL            IDFGHI         ON          [  1]    ***   
       SPINORBIT            ISOCAL         OFF         [  0]    ***   
       SPINROTATIO          ISRCON         OFF         [  0]    ***   
       SPIN_FLIP            ISPFLP         OFF         [  0]    ***   
       SPIN_ORBIT           ISPORB         OFF         [  0]    ***   
       SPIN_SCAL            ISCSMP         OFF         [  0]    ***   
       STEEPSCALE           ISTPSC              1000          x 10-3  
       SUBGROUP             ISUBGP         DEFAULT     [  0]    ***   
       SUBGRPAXIS           ISBXYZ         X           [  0]    ***   
       SYMMETRY             ISYM           ON          [  0]    ***   
       SYM_CHECK            ISYMCK         OVERRIDE    [  1]    ***   
       T3_EXTRAPOL          IT3EXT         OFF         [  0]    ***   
       T4_EXTRAPOL          IT4EXP         OFF         [  0]    ***   
       TAMP_SUM             IEVERY              5               ***   
       TESTSUITE            ITESTS         OFF         [  0]    ***   
       THERMOCH             ITHERM         OFF         [  0]    ***   
       TOL_CHOLESK          ITOLCH          10D-  4             ***   
       TRANGRAD             IRESRM         OFF         [  0]    ***   
       TRANS_INV            ITRAIN         IGNORE      [  1]    ***   
       TREAT_PERT           ITREAT         SIMULTANEOUS[  0]    ***   
       TRIP_ALGORI          ITRALG         NORMAL      [  0]    ***   
       UIJ_THRESHO          IUIJTH              1               ***   
       UNITS                IUNITS         ANGSTROM    [  0]    ***   
       UNOS                 IUNOS          OFF         [  0]    ***   
       UPDATE_HESS          IHUPDT         ON          [  1]    ***   
       VIBPHASE             ISETPH         STANDARD    [  0]    ***   
       VIBRATION            IVIB           ANALYTIC    [  1]    ***   
       VIB_ALGORIT          IGEALG         STANDARD    [  0]    ***   
       VNATORB              IVNORB         OFF         [  0]    ***   
       VTRAN                IVTRAN         FULL/PARTIAL[  0]    ***   
       XFIELD               IXEFLD              0             x 10-6  
       XFORM_TOL            IXFTOL          10D- 11             ***   
       YFIELD               IYEFLD              0             x 10-6  
       ZFIELD               IZEFLD            ***             x 10-6  
       ZSCALE_EXP           IZEXPS         OFF         [  0]    ***   
    -------------------------------------------------------------------
   2 entries found in Z-matrix 
   Job Title : Carbon Monoxide DBOC calculation                                                
   There are  1 unique internal coordinates.
   Of these,  0 will be optimized.
   User supplied Z-matrix: 
--------------------------------------------------------------------------------
       SYMBOL    BOND      LENGTH    ANGLE     ANGLE     DIHED     ANGLE
                  TO      (ANGST)    WRT      (DEG)      WRT      (DEG)
--------------------------------------------------------------------------------
        C    
        O          1         r    
                  *Initial values for internal coordinates* 
                      Name             Value
                        r               1.1793103448
--------------------------------------------------------------------------------
  read isotopes from ZMAT file 
   Rotational constants (in cm-1): 
          1.6835109545             1.6835109545
   Rotational constants (in MHz): 
      50470.3957821594         50470.3957821594
********************************************************************************
   The full molecular point group is CXv .
   The largest Abelian subgroup of the full molecular point group is C2v .
   The computational point group is C2v .
********************************************************************************
--------------------------------------------------------------------------------
   Analysis of internal coordinates specified by Z-matrix 
--------------------------------------------------------------------------------
   *The nuclear repulsion energy is   21.538436350877191 a.u.
   *There is   1 degree of freedom within the tot. symm. molecular subspace.
   *Z-matrix requests optimization of   0 coordinates.
   *The optimization is constrained.
   *The following   1 parameters can have non-zero 
    derivatives within the totally symmetric subspace:
             r    [ 1]
   *The following   0 parameters are to be optimized:

   *The following coordinates must be varied in an  unconstrained optimization.
             r    [ 1]
--------------------------------------------------------------------------------


 ----------------------------------------------------------------
         Coordinates used in calculation (QCOMP) 
 ----------------------------------------------------------------
 Z-matrix   Atomic            Coordinates (in bohr)
  Symbol    Number           X              Y              Z
 ----------------------------------------------------------------
     C         6        -0.00000000     0.00000000     1.33711947
     O         8         0.00000000     0.00000000    -0.89145457
 ----------------------------------------------------------------
 
   Interatomic distance matrix (Angstroms) 
 
                 C             O    
                [ 1]        [ 2]
  C    [ 1]     0.00000
  O    [ 2]     1.17931     0.00000
 rotcon2
   Rotational constants (in cm-1): 
          1.6835109545             0.0000000000
   Rotational constants (in MHz): 
      50470.3957821594             0.0000000000
  ECPDATA file not present.   Using default ECPDATA. 
  @GTFLGS-I, Hessian will be transformed to curvilinear coordinates.
  There are  218 basis functions.
 @CHECKOUT-I, Total execution time (CPU/WALL):        0.17/       0.23 seconds.
--executable xjoda finished with status     0 in        0.26 seconds (walltime).
 --invoking executable--
/nfs/workspaces/public/cfour_mpi/bin/xvmol
 SERIAL VERSION OF MOLECULE STARTED
********************************************************************************
                    INPUT FROM MOL FILE
********************************************************************************
INTGRL        1    0    1    0    0    0    0    0    0                         
         *** CFOUR Program System (Release V0.1) ***                            
Carbon Monoxide DBOC calculation                                                
    2    2 X  Y       0.10E-08              0    0                              
   9999.00      3.00                                                            
          6.00000000    1    5    1    1    1    1    1                         
C #1  -0.000000000000000   0.000000000000000   1.337119469017751                
   16    9                                                                      
   33980.0000000000       9.100000000000000E-005 -1.900000000000000E-005        
  0.000000000000000E+000  0.000000000000000E+000  0.000000000000000E+000        
  0.000000000000000E+000  0.000000000000000E+000  0.000000000000000E+000        
  0.000000000000000E+000                                                        
   5089.00000000000       7.040000000000000E-004 -1.510000000000000E-004        
  0.000000000000000E+000  0.000000000000000E+000  0.000000000000000E+000        
  0.000000000000000E+000  0.000000000000000E+000  0.000000000000000E+000        
  0.000000000000000E+000                                                        
   1157.00000000000       3.693000000000000E-003 -7.850000000000000E-004        
  0.000000000000000E+000  0.000000000000000E+000  0.000000000000000E+000        
  0.000000000000000E+000  0.000000000000000E+000  0.000000000000000E+000        
  0.000000000000000E+000                                                        
   326.600000000000       1.536000000000000E-002 -3.324000000000000E-003        
  0.000000000000000E+000  0.000000000000000E+000  0.000000000000000E+000        
  0.000000000000000E+000  0.000000000000000E+000  0.000000000000000E+000        
  0.000000000000000E+000                                                        
   106.100000000000       5.292900000000000E-002 -1.151200000000000E-002        
  0.000000000000000E+000  0.000000000000000E+000  0.000000000000000E+000        
  0.000000000000000E+000  0.000000000000000E+000  0.000000000000000E+000        
  0.000000000000000E+000                                                        
   38.1100000000000       0.147043000000000      -3.416000000000000E-002        
  0.000000000000000E+000  0.000000000000000E+000  0.000000000000000E+000        
  0.000000000000000E+000  0.000000000000000E+000  0.000000000000000E+000        
  0.000000000000000E+000                                                        
   14.7500000000000       0.305631000000000      -7.717300000000001E-002        
  0.000000000000000E+000  0.000000000000000E+000  0.000000000000000E+000        
  0.000000000000000E+000  0.000000000000000E+000  0.000000000000000E+000        
  0.000000000000000E+000                                                        
   6.03500000000000       0.399345000000000      -0.141493000000000             
  0.000000000000000E+000  0.000000000000000E+000  0.000000000000000E+000        
  0.000000000000000E+000  0.000000000000000E+000  0.000000000000000E+000        
  0.000000000000000E+000                                                        
   2.53000000000000       0.217051000000000      -0.118019000000000             
  0.000000000000000E+000  0.000000000000000E+000  0.000000000000000E+000        
  0.000000000000000E+000  0.000000000000000E+000  0.000000000000000E+000        
  0.000000000000000E+000                                                        
  0.735500000000000       1.589400000000000E-002  0.273806000000000             
   1.00000000000000       0.000000000000000E+000  0.000000000000000E+000        
  0.000000000000000E+000  0.000000000000000E+000  0.000000000000000E+000        
  0.000000000000000E+000                                                        
  0.290500000000000      -3.084000000000000E-003  0.586510000000000             
  0.000000000000000E+000   1.00000000000000       0.000000000000000E+000        
  0.000000000000000E+000  0.000000000000000E+000  0.000000000000000E+000        
  0.000000000000000E+000                                                        
  0.111100000000000       9.779999999999999E-004  0.285430000000000             
  0.000000000000000E+000  0.000000000000000E+000   1.00000000000000             
  0.000000000000000E+000  0.000000000000000E+000  0.000000000000000E+000        
  0.000000000000000E+000                                                        
   7.21600000000000       0.000000000000000E+000  0.000000000000000E+000        
  0.000000000000000E+000  0.000000000000000E+000  0.000000000000000E+000        
   1.00000000000000       0.000000000000000E+000  0.000000000000000E+000        
  0.000000000000000E+000                                                        
   19.5700000000000       0.000000000000000E+000  0.000000000000000E+000        
  0.000000000000000E+000  0.000000000000000E+000  0.000000000000000E+000        
  0.000000000000000E+000   1.00000000000000       0.000000000000000E+000        
  0.000000000000000E+000                                                        
   53.0730000000000       0.000000000000000E+000  0.000000000000000E+000        
  0.000000000000000E+000  0.000000000000000E+000  0.000000000000000E+000        
  0.000000000000000E+000  0.000000000000000E+000   1.00000000000000             
  0.000000000000000E+000                                                        
  4.145000000000000E-002  0.000000000000000E+000  0.000000000000000E+000        
  0.000000000000000E+000  0.000000000000000E+000  0.000000000000000E+000        
  0.000000000000000E+000  0.000000000000000E+000  0.000000000000000E+000        
   1.00000000000000                                                             
   10    8                                                                      
   34.5100000000000       5.378000000000000E-003  0.000000000000000E+000        
  0.000000000000000E+000  0.000000000000000E+000  0.000000000000000E+000        
  0.000000000000000E+000  0.000000000000000E+000  0.000000000000000E+000        
   7.91500000000000       3.613200000000000E-002  0.000000000000000E+000        
  0.000000000000000E+000  0.000000000000000E+000  0.000000000000000E+000        
  0.000000000000000E+000  0.000000000000000E+000  0.000000000000000E+000        
   2.36800000000000       0.142493000000000       0.000000000000000E+000        
  0.000000000000000E+000  0.000000000000000E+000  0.000000000000000E+000        
  0.000000000000000E+000  0.000000000000000E+000  0.000000000000000E+000        
  0.813200000000000       0.342150000000000        1.00000000000000             
  0.000000000000000E+000  0.000000000000000E+000  0.000000000000000E+000        
  0.000000000000000E+000  0.000000000000000E+000  0.000000000000000E+000        
  0.289000000000000       0.463864000000000       0.000000000000000E+000        
   1.00000000000000       0.000000000000000E+000  0.000000000000000E+000        
  0.000000000000000E+000  0.000000000000000E+000  0.000000000000000E+000        
  0.100700000000000       0.250028000000000       0.000000000000000E+000        
  0.000000000000000E+000   1.00000000000000       0.000000000000000E+000        
  0.000000000000000E+000  0.000000000000000E+000  0.000000000000000E+000        
   8.18200000000000       0.000000000000000E+000  0.000000000000000E+000        
  0.000000000000000E+000  0.000000000000000E+000   1.00000000000000             
  0.000000000000000E+000  0.000000000000000E+000  0.000000000000000E+000        
   24.1860000000000       0.000000000000000E+000  0.000000000000000E+000        
  0.000000000000000E+000  0.000000000000000E+000  0.000000000000000E+000        
   1.00000000000000       0.000000000000000E+000  0.000000000000000E+000        
   71.4940000000000       0.000000000000000E+000  0.000000000000000E+000        
  0.000000000000000E+000  0.000000000000000E+000  0.000000000000000E+000        
  0.000000000000000E+000   1.00000000000000       0.000000000000000E+000        
  3.218000000000000E-002  0.000000000000000E+000  0.000000000000000E+000        
  0.000000000000000E+000  0.000000000000000E+000  0.000000000000000E+000        
  0.000000000000000E+000  0.000000000000000E+000   1.00000000000000             
    6    6                                                                      
   1.84800000000000        1.00000000000000       0.000000000000000E+000        
  0.000000000000000E+000  0.000000000000000E+000  0.000000000000000E+000        
  0.000000000000000E+000                                                        
  0.649000000000000       0.000000000000000E+000   1.00000000000000             
  0.000000000000000E+000  0.000000000000000E+000  0.000000000000000E+000        
  0.000000000000000E+000                                                        
  0.228000000000000       0.000000000000000E+000  0.000000000000000E+000        
   1.00000000000000       0.000000000000000E+000  0.000000000000000E+000        
  0.000000000000000E+000                                                        
   8.65600000000000       0.000000000000000E+000  0.000000000000000E+000        
  0.000000000000000E+000   1.00000000000000       0.000000000000000E+000        
  0.000000000000000E+000                                                        
   33.2130000000000       0.000000000000000E+000  0.000000000000000E+000        
  0.000000000000000E+000  0.000000000000000E+000   1.00000000000000             
  0.000000000000000E+000                                                        
  7.660000000000000E-002  0.000000000000000E+000  0.000000000000000E+000        
  0.000000000000000E+000  0.000000000000000E+000  0.000000000000000E+000        
   1.00000000000000                                                             
    4    4                                                                      
   1.41900000000000        1.00000000000000       0.000000000000000E+000        
  0.000000000000000E+000  0.000000000000000E+000                                
  0.485000000000000       0.000000000000000E+000   1.00000000000000             
  0.000000000000000E+000  0.000000000000000E+000                                
   24.6940000000000       0.000000000000000E+000  0.000000000000000E+000        
   1.00000000000000       0.000000000000000E+000                                
  0.187000000000000       0.000000000000000E+000  0.000000000000000E+000        
  0.000000000000000E+000   1.00000000000000                                     
    2    2                                                                      
   1.01100000000000        1.00000000000000       0.000000000000000E+000        
  0.424000000000000       0.000000000000000E+000   1.00000000000000             
          8.00000000    1    5    1    1    1    1    1                         
O #2   0.000000000000000   0.000000000000000  -0.891454565700657                
   16    9                                                                      
   61420.0000000000       9.000000000000001E-005 -2.000000000000000E-005        
  0.000000000000000E+000  0.000000000000000E+000  0.000000000000000E+000        
  0.000000000000000E+000  0.000000000000000E+000  0.000000000000000E+000        
  0.000000000000000E+000                                                        
   9199.00000000000       6.980000000000001E-004 -1.590000000000000E-004        
  0.000000000000000E+000  0.000000000000000E+000  0.000000000000000E+000        
  0.000000000000000E+000  0.000000000000000E+000  0.000000000000000E+000        
  0.000000000000000E+000                                                        
   2091.00000000000       3.664000000000000E-003 -8.290000000000000E-004        
  0.000000000000000E+000  0.000000000000000E+000  0.000000000000000E+000        
  0.000000000000000E+000  0.000000000000000E+000  0.000000000000000E+000        
  0.000000000000000E+000                                                        
   590.900000000000       1.521800000000000E-002 -3.508000000000000E-003        
  0.000000000000000E+000  0.000000000000000E+000  0.000000000000000E+000        
  0.000000000000000E+000  0.000000000000000E+000  0.000000000000000E+000        
  0.000000000000000E+000                                                        
   192.300000000000       5.242300000000000E-002 -1.215600000000000E-002        
  0.000000000000000E+000  0.000000000000000E+000  0.000000000000000E+000        
  0.000000000000000E+000  0.000000000000000E+000  0.000000000000000E+000        
  0.000000000000000E+000                                                        
   69.3200000000000       0.145921000000000      -3.626100000000000E-002        
  0.000000000000000E+000  0.000000000000000E+000  0.000000000000000E+000        
  0.000000000000000E+000  0.000000000000000E+000  0.000000000000000E+000        
  0.000000000000000E+000                                                        
   26.9700000000000       0.305258000000000      -8.299200000000000E-002        
  0.000000000000000E+000  0.000000000000000E+000  0.000000000000000E+000        
  0.000000000000000E+000  0.000000000000000E+000  0.000000000000000E+000        
  0.000000000000000E+000                                                        
   11.1000000000000       0.398508000000000      -0.152090000000000             
  0.000000000000000E+000  0.000000000000000E+000  0.000000000000000E+000        
  0.000000000000000E+000  0.000000000000000E+000  0.000000000000000E+000        
  0.000000000000000E+000                                                        
   4.68200000000000       0.216980000000000      -0.115331000000000             
  0.000000000000000E+000  0.000000000000000E+000  0.000000000000000E+000        
  0.000000000000000E+000  0.000000000000000E+000  0.000000000000000E+000        
  0.000000000000000E+000                                                        
   1.42800000000000       1.759400000000000E-002  0.288979000000000             
   1.00000000000000       0.000000000000000E+000  0.000000000000000E+000        
  0.000000000000000E+000  0.000000000000000E+000  0.000000000000000E+000        
  0.000000000000000E+000                                                        
  0.554700000000000      -2.502000000000000E-003  0.586128000000000             
  0.000000000000000E+000   1.00000000000000       0.000000000000000E+000        
  0.000000000000000E+000  0.000000000000000E+000  0.000000000000000E+000        
  0.000000000000000E+000                                                        
  0.206700000000000       9.540000000000000E-004  0.277624000000000             
  0.000000000000000E+000  0.000000000000000E+000   1.00000000000000             
  0.000000000000000E+000  0.000000000000000E+000  0.000000000000000E+000        
  0.000000000000000E+000                                                        
   12.9740000000000       0.000000000000000E+000  0.000000000000000E+000        
  0.000000000000000E+000  0.000000000000000E+000  0.000000000000000E+000        
   1.00000000000000       0.000000000000000E+000  0.000000000000000E+000        
  0.000000000000000E+000                                                        
   34.9000000000000       0.000000000000000E+000  0.000000000000000E+000        
  0.000000000000000E+000  0.000000000000000E+000  0.000000000000000E+000        
  0.000000000000000E+000   1.00000000000000       0.000000000000000E+000        
  0.000000000000000E+000                                                        
   93.8810000000000       0.000000000000000E+000  0.000000000000000E+000        
  0.000000000000000E+000  0.000000000000000E+000  0.000000000000000E+000        
  0.000000000000000E+000  0.000000000000000E+000   1.00000000000000             
  0.000000000000000E+000                                                        
  6.959000000000000E-002  0.000000000000000E+000  0.000000000000000E+000        
  0.000000000000000E+000  0.000000000000000E+000  0.000000000000000E+000        
  0.000000000000000E+000  0.000000000000000E+000  0.000000000000000E+000        
   1.00000000000000                                                             
   10    8                                                                      
   63.4200000000000       6.044000000000000E-003  0.000000000000000E+000        
  0.000000000000000E+000  0.000000000000000E+000  0.000000000000000E+000        
  0.000000000000000E+000  0.000000000000000E+000  0.000000000000000E+000        
   14.6600000000000       4.179900000000000E-002  0.000000000000000E+000        
  0.000000000000000E+000  0.000000000000000E+000  0.000000000000000E+000        
  0.000000000000000E+000  0.000000000000000E+000  0.000000000000000E+000        
   4.45900000000000       0.161143000000000       0.000000000000000E+000        
  0.000000000000000E+000  0.000000000000000E+000  0.000000000000000E+000        
  0.000000000000000E+000  0.000000000000000E+000  0.000000000000000E+000        
   1.53100000000000       0.356731000000000        1.00000000000000             
  0.000000000000000E+000  0.000000000000000E+000  0.000000000000000E+000        
  0.000000000000000E+000  0.000000000000000E+000  0.000000000000000E+000        
  0.530200000000000       0.448309000000000       0.000000000000000E+000        
   1.00000000000000       0.000000000000000E+000  0.000000000000000E+000        
  0.000000000000000E+000  0.000000000000000E+000  0.000000000000000E+000        
  0.175000000000000       0.244940000000000       0.000000000000000E+000        
  0.000000000000000E+000   1.00000000000000       0.000000000000000E+000        
  0.000000000000000E+000  0.000000000000000E+000  0.000000000000000E+000        
   14.4750000000000       0.000000000000000E+000  0.000000000000000E+000        
  0.000000000000000E+000  0.000000000000000E+000   1.00000000000000             
  0.000000000000000E+000  0.000000000000000E+000  0.000000000000000E+000        
   42.7300000000000       0.000000000000000E+000  0.000000000000000E+000        
  0.000000000000000E+000  0.000000000000000E+000  0.000000000000000E+000        
   1.00000000000000       0.000000000000000E+000  0.000000000000000E+000        
   126.140000000000       0.000000000000000E+000  0.000000000000000E+000        
  0.000000000000000E+000  0.000000000000000E+000  0.000000000000000E+000        
  0.000000000000000E+000   1.00000000000000       0.000000000000000E+000        
  5.348000000000000E-002  0.000000000000000E+000  0.000000000000000E+000        
  0.000000000000000E+000  0.000000000000000E+000  0.000000000000000E+000        
  0.000000000000000E+000  0.000000000000000E+000   1.00000000000000             
    6    6                                                                      
   3.77500000000000        1.00000000000000       0.000000000000000E+000        
  0.000000000000000E+000  0.000000000000000E+000  0.000000000000000E+000        
  0.000000000000000E+000                                                        
   1.30000000000000       0.000000000000000E+000   1.00000000000000             
  0.000000000000000E+000  0.000000000000000E+000  0.000000000000000E+000        
  0.000000000000000E+000                                                        
  0.444000000000000       0.000000000000000E+000  0.000000000000000E+000        
   1.00000000000000       0.000000000000000E+000  0.000000000000000E+000        
  0.000000000000000E+000                                                        
   14.9270000000000       0.000000000000000E+000  0.000000000000000E+000        
  0.000000000000000E+000   1.00000000000000       0.000000000000000E+000        
  0.000000000000000E+000                                                        
   57.5440000000000       0.000000000000000E+000  0.000000000000000E+000        
  0.000000000000000E+000  0.000000000000000E+000   1.00000000000000             
  0.000000000000000E+000                                                        
  0.154000000000000       0.000000000000000E+000  0.000000000000000E+000        
  0.000000000000000E+000  0.000000000000000E+000  0.000000000000000E+000        
   1.00000000000000                                                             
    4    4                                                                      
   2.66600000000000        1.00000000000000       0.000000000000000E+000        
  0.000000000000000E+000  0.000000000000000E+000                                
  0.859000000000000       0.000000000000000E+000   1.00000000000000             
  0.000000000000000E+000  0.000000000000000E+000                                
   26.4830000000000       0.000000000000000E+000  0.000000000000000E+000        
   1.00000000000000       0.000000000000000E+000                                
  0.324000000000000       0.000000000000000E+000  0.000000000000000E+000        
  0.000000000000000E+000   1.00000000000000                                     
    2    2                                                                      
   1.84600000000000        1.00000000000000       0.000000000000000E+000        
  0.714000000000000       0.000000000000000E+000   1.00000000000000             
FINISH                                                                          
 
********************************************************************************
 ONE- AND TWO-ELECTRON INTEGRALS OVER SYMMETRY-ADAPTED AOS ARE CALCULATED.

  SPHERICAL HARMONICS ARE USED.
  
  INTEGRALS LESS THAN  0.10E-13 ARE NEGLECTED.

  NUCLEAR REPULSION ENERGY :   21.5384363509 A.U.
  @MOLECU-I, ONE ELECTRON INTEGRALS (CPU/WALL):        0.06/       0.08 SECONDS.
  @TWOEL-I,    4573770 INTEGRALS OF SYMMETRY TYPE  I I I I
  @TWOEL-I,   19644814 INTEGRALS OF SYMMETRY TYPE  I J I J
  @TWOEL-I,   10352246 INTEGRALS OF SYMMETRY TYPE  I I J J
  @TWOEL-I,   14534238 INTEGRALS OF SYMMETRY TYPE  I J K L
  @TWOEL-I, TOTAL NUMBER OF 2-E INTEGRALS   49105068.
  @MOLECU-I, TWO ELECTRON INTEGRALS (CPU/WALL):      235.54/      32.22 SECONDS.
 @CHECKOUT-I, Total execution time (CPU/WALL):      235.62/      32.34 seconds.

Running with 14 threads/proc

--executable xvmol finished with status     0 in       32.38 seconds (walltime).
 --invoking executable--
/nfs/workspaces/public/cfour_mpi/bin/xvmol2ja
 @GETMEM-I,  Allocated    3814 MB of main memory.
 @CHECKOUT-I, Total execution time (CPU/WALL):        0.22/       0.07 seconds.
--executable xvmol2ja finished with status     0 in        0.10 seconds (walltime).
 --invoking executable--
/nfs/workspaces/public/cfour_mpi/bin/xvprop
 @GETMEM-I,  Allocated    3814 MB of main memory.
   Property integrals will be calculated.
    --------------------------------------------------------------
                                   Property evaluated at 
    Property type                X             Y             Z
    --------------------------------------------------------------
    Dipole moment               ----          ----          ----  
    Quadrupole moment           ----          ----          ----  
    Octopole moment             ----          ----          ----  
    Relativisitic corr.         ----          ----          ----  
    Second moment            0.0000000     0.0000000     0.0000000
    Electron density         0.0000000     0.0000000     1.3371195
    Electron density         0.0000000     0.0000000    -0.8914546
    Field gradient           0.0000000     0.0000000     1.3371195
    Field gradient           0.0000000     0.0000000    -0.8914546
    Potential                0.0000000     0.0000000     1.3371195
    Potential                0.0000000     0.0000000    -0.8914546
    --------------------------------------------------------------
 @CHECKOUT-I, Total execution time (CPU/WALL):        1.72/       1.73 seconds.
--executable xvprop finished with status     0 in        1.78 seconds (walltime).
 --invoking executable--
/nfs/workspaces/public/cfour_mpi/bin/xvscf
  There are  218 functions in the AO basis.

  There are 4 irreducible representations.

       Irrep        # of functions
         1                 86
         2                 52
         3                 52
         4                 28


  Parameters for SCF calculation: 
        SCF reference function:  RHF  
  Maximum number of iterations:  150
     Full symmetry point group: CXv 
     Computational point group: C2v 
        Initial density matrix: MOREAD                 
     SCF convergence tolerance: 10**(-10)
  DIIS convergence acceleration:  ON
          Latest start for DIIS:   8
                     DIIS order:   6

  Memory information:    2523578 words required.
  Fock matrices are constructed from AO integral file.
 @GETMEM-I,  Allocated      19 MB of main memory.
  Initialization and symmetry analysis required      0.002 seconds.

  Adding electric field perturbation to one-electron Hamiltonian.
  Field direction     : Z
  Field strength      : -0.0002000 a.u.

  @INITGES-I, Occupancies from core Hamiltonian:

          Alpha population by irrep:   5    1    1    0
           Beta population by irrep:   5    1    1    0


 total no. of electrons in initial guess :  0.000000000000000E+000
  --------------------------------------------------------------------
  Iteration         Total Energy            Largest Density Difference
  --------------------------------------------------------------------
       0            21.538614566934442              0.0000000000D+00
   current occupation vector 
     5  1  1  0
     5  1  1  0
       1           -92.154405430307719              0.1842215906D+02
   current occupation vector 
     5  1  1  0
     5  1  1  0
       2           -97.391163964416037              0.1841761121D+02
   current occupation vector 
     5  1  1  0
     5  1  1  0
       3          -103.467662027051944              0.1171887837D+02
   current occupation vector 
     5  1  1  0
     5  1  1  0
       4          -100.161448561769589              0.7412195449D+01
   current occupation vector 
     5  1  1  0
     5  1  1  0
       5          -102.910823974435758              0.6524974448D+01
   current occupation vector 
     5  1  1  0
     5  1  1  0
       6           -99.784308999447546              0.5855208214D+01
   current occupation vector 
     5  1  1  0
     5  1  1  0
       7          -102.849192646872538              0.5783440638D+01
   current occupation vector 
     5  1  1  0
     5  1  1  0
       8           -99.635552988049568              0.5775265067D+01
   current occupation vector 
     5  1  1  0
     5  1  1  0
       9          -110.412887330241901              0.4366065731D+01
   current occupation vector 
     5  1  1  0
     5  1  1  0
      10          -112.096727419875563              0.9863663258D+00
   current occupation vector 
     5  1  1  0
     5  1  1  0
      11          -112.748462625573481              0.5590880838D+00
   current occupation vector 
     5  1  1  0
     5  1  1  0
      12          -112.776373250388488              0.1345683272D+00
   current occupation vector 
     5  1  1  0
     5  1  1  0
      13          -112.777104958566824              0.3328214988D-01
   current occupation vector 
     5  1  1  0
     5  1  1  0
      14          -112.777231440641756              0.1632993202D-01
   current occupation vector 
     5  1  1  0
     5  1  1  0
      15          -112.777243763098269              0.6966385441D-02
   current occupation vector 
     5  1  1  0
     5  1  1  0
      16          -112.777243884089174              0.5853389908D-03
   current occupation vector 
     5  1  1  0
     5  1  1  0
      17          -112.777243888134009              0.7646472556D-04
   current occupation vector 
     5  1  1  0
     5  1  1  0
      18          -112.777243888247270              0.1650745671D-04
   current occupation vector 
     5  1  1  0
     5  1  1  0
      19          -112.777243888253551              0.3282691803D-05
   current occupation vector 
     5  1  1  0
     5  1  1  0
      20          -112.777243888254063              0.6172269016D-06
   current occupation vector 
     5  1  1  0
     5  1  1  0
      21          -112.777243888253807              0.7063445429D-07
   current occupation vector 
     5  1  1  0
     5  1  1  0
      22          -112.777243888253892              0.1626440649D-07
   current occupation vector 
     5  1  1  0
     5  1  1  0
      23          -112.777243888253182              0.9685625635D-08
   current occupation vector 
     5  1  1  0
     5  1  1  0
      24          -112.777243888253693              0.2679646505D-09
   current occupation vector 
     5  1  1  0
     5  1  1  0
      25          -112.777243888254262              0.1050932674D-09
   current occupation vector 
     5  1  1  0
     5  1  1  0

  SCF has converged.

 Density matrix saved to file den.dat
 total electron number:   14.0000000000000     
     E(SCF)=      -112.777243888253551              0.6707301381D-10

  Eigenvector printing suppressed.

 @PUTMOS-I, Writing converged MOs to NEWMOS. 
 @PUTMOS-I, Symmetry   1 Full Blocks 21 Partial Blocksize   2
 @PUTMOS-I, Symmetry   2 Full Blocks 13 Partial Blocksize   0
 @PUTMOS-I, Symmetry   3 Full Blocks 13 Partial Blocksize   0
 @PUTMOS-I, Symmetry   4 Full Blocks  7 Partial Blocksize   0
 @PUTFOCK-I, Writing converged Fock matrix to NEWFOCK. 
 @PUTFOCK-I, Symmetry   1 Full Blocks 21 Partial Blocksize   2
 @PUTFOCK-I, Symmetry   2 Full Blocks 13 Partial Blocksize   0
 @PUTFOCK-I, Symmetry   3 Full Blocks 13 Partial Blocksize   0
 @PUTFOCK-I, Symmetry   4 Full Blocks  7 Partial Blocksize   0


 
  ORBITAL EIGENVALUES (ALPHA)  (1H = 27.2113834 eV)

       MO #        E(hartree)               E(eV)           FULLSYM    COMPSYM
       ----   --------------------   --------------------   -------   ---------
    1     1         -20.6667036330        -562.3695961716     SG+        A1 (1)
    2     2         -11.3832841132        -309.7549083554     SG+        A1 (1)
    3     3          -1.4871472093         -40.4673328848     SG+        A1 (1)
    4     4          -0.8004221316         -21.7805935048     SG+        A1 (1)
    5   139          -0.6189501342         -16.8424894066      PI        B2 (3)
    6    87          -0.6189501342         -16.8424894066      PI        B1 (2)
    7     5          -0.5604281843         -15.2500261909     SG+        A1 (1)
  +++++++++++++++++++++++++++++++++++++++++++++++++++++++++++++++++++++++++++++
    8    88           0.0602588767           1.6397273965      PI        B1 (2)
    9   140           0.0602588767           1.6397273965      PI        B2 (3)
   10     6           0.0613750210           1.6700992287     SG+        A1 (1)
   11     7           0.0727024015           1.9783329204     SG+        A1 (1)
   12   141           0.1282912456           3.4909822714      PI        B2 (3)
   13    89           0.1282912456           3.4909822714      PI        B1 (2)
   14     8           0.1568040877           4.2668561489     SG+        A1 (1)
   15    90           0.1664823369           4.5302146998      PI        B1 (2)
   16   142           0.1664823369           4.5302146998      PI        B2 (3)
   17   191           0.2274192308           6.1883918808      DE        A2 (4)
   18     9           0.2274192308           6.1883918808      DE        A1 (1)
   19    10           0.2283534651           6.2138136902     SG+        A1 (1)
   20    11           0.3004762170           8.1763735437     SG+        A1 (1)
   21   143           0.3150053706           8.5717319130      PI        B2 (3)
   22    91           0.3150053706           8.5717319130      PI        B1 (2)
   23    12           0.3891354379          10.5889135947     SG+        A1 (1)
   24   144           0.3952390194          10.7550004911      PI        B2 (3)
   25    92           0.3952390194          10.7550004911      PI        B1 (2)
   26    13           0.5089221309          13.8484752235     SG+        A1 (1)
   27   192           0.5378562658          14.6358130630      DE        A2 (4)
   28    14           0.5378562658          14.6358130630      DE        A1 (1)
   29   145           0.6247809714          17.0011545545      PI        B2 (3)
   30    93           0.6247809714          17.0011545545      PI        B1 (2)
   31    15           0.6278307995          17.0841445948     SG+        A1 (1)
   32   146           0.7474107345          20.3380800532      PH        B2 (3)
   33    94           0.7474107345          20.3380800532      PH        B1 (2)
   34   193           0.7661419537          20.8477824410      DE        A2 (4)
   35    16           0.7661419537          20.8477824410      DE        A1 (1)
   36    17           0.7785389591          21.1851221071     SG+        A1 (1)
   37   147           0.8167692841          22.2254221385      PI        B2 (3)
   38    95           0.8167692841          22.2254221385      PI        B1 (2)
   39    18           0.8675568477          23.6074220035     SG+        A1 (1)
   40    19           0.8846312608          24.0720404055     SG+        A1 (1)
   41   148           0.8850238882          24.0827243388      PI        B2 (3)
   42    96           0.8850238882          24.0827243388      PI        B1 (2)
   43    20           0.8877443954          24.1567531047      DE        A1 (1)
   44   194           0.8877443954          24.1567531047      DE        A2 (4)
   45   149           1.0653101436          28.9885627573      PI        B2 (3)
   46    97           1.0653101436          28.9885627573      PI        B1 (2)
   47    21           1.1624940650          31.6330717017     SG+        A1 (1)
   48   150           1.4438698727          39.2896966869      PH        B2 (3)
   49    98           1.4438698727          39.2896966869      PH        B1 (2)
   50    22           1.4551838869          39.5975666632     SG+        A1 (1)
   51    23           1.5260136302          41.5249419647      DE        A1 (1)
   52   195           1.5260136302          41.5249419647      DE        A2 (4)
   53    99           1.5613717213          42.4870845384      PI        B1 (2)
   54   151           1.5613717213          42.4870845384      PI        B2 (3)
   55    24           1.6673350059          45.3704921026     SG+        A1 (1)
   56    25           1.7620051238          47.9465969774      DE        A1 (1)
   57   196           1.7620051238          47.9465969774      DE        A2 (4)
   58   152           1.7662240740          48.0614004466      PI        B2 (3)
   59   100           1.7662240740          48.0614004466      PI        B1 (2)
   60    26           1.7884895258          48.6672741944     SG+        A1 (1)
   61   153           1.9921874059          54.2101753066      PI        B2 (3)
   62   101           1.9921874059          54.2101753067      PI        B1 (2)
   63   197           2.1018880062          57.1952804009      PI        A2 (4)
   64    27           2.1018880062          57.1952804009      PI        A1 (1)
   65    28           2.1044961108          57.2662505340     SG+        A1 (1)
   66   198           2.1856250436          59.4738810302      DE        A2 (4)
   67    29           2.1856250436          59.4738810302      DE        A1 (1)
   68   154           2.2472321255          61.1502949562      PH        B2 (3)
   69   102           2.2472321255          61.1502949562      PH        B1 (2)
   70    30           2.3110424443          62.8866620066     SG+        A1 (1)
   71   103           2.3140361515          62.9681249210      PI        B1 (2)
   72   155           2.3140361515          62.9681249210      PI        B2 (3)
   73   156           2.3443041662          63.7917594715      PH        B2 (3)
   74   104           2.3443041662          63.7917594715      PH        B1 (2)
   75   199           2.3559461878          64.1085549872      DE        A2 (4)
   76    31           2.3559461878          64.1085549872      DE        A1 (1)
   77    32           2.4807711019          67.5052135825     SG+        A1 (1)
   78   157           2.5859934382          70.3684589166      PI        B2 (3)
   79   105           2.5859934382          70.3684589167      PI        B1 (2)
   80   106           2.7869024641          75.8354714481      PI        B1 (2)
   81   158           2.7869024641          75.8354714482      PI        B2 (3)
   82    33           2.8711573515          78.1281634947     SG+        A1 (1)
   83    34           2.9658295644          80.7043253763      DE        A1 (1)
   84   200           2.9658295644          80.7043253764      DE        A2 (4)
   85    35           3.4813796274          94.7331558030     SG+        A1 (1)
   86    36           3.7154312345         101.1020238181      PI        A1 (1)
   87   201           3.7154312345         101.1020238181      PI        A2 (4)
   88   159           3.7310565089         101.5272091507      PI        B2 (3)
   89   107           3.7310565089         101.5272091507      PI        B1 (2)
   90    37           3.9287551153         106.9068617283     SG+        A1 (1)
   91   160           4.0865711217         111.2012535830      PH        B2 (3)
   92   108           4.0865711217         111.2012535830      PH        B1 (2)
   93    38           4.1814121567         113.7820093489      DE        A1 (1)
   94   202           4.1814121567         113.7820093489      DE        A2 (4)
   95   109           4.2063682379         114.4610988443      PI        B1 (2)
   96   161           4.2063682379         114.4610988443      PI        B2 (3)
   97   110           4.2309978405         115.1313044037      PH        B1 (2)
   98   162           4.2309978405         115.1313044037      PH        B2 (3)
   99    39           4.2564849791         115.8248447038     SG+        A1 (1)
  100    40           4.3596172566         118.6312166454      DE        A1 (1)
  101   203           4.3596172566         118.6312166454      DE        A2 (4)
  102    41           4.4603302221         121.3717557637     SG+        A1 (1)
  103   163           4.7868395260         130.2565256155      PI        B2 (3)
  104   111           4.7868395260         130.2565256156      PI        B1 (2)
  105   112           5.0505422883         137.4322425856      PI        B1 (2)
  106   164           5.0505422883         137.4322425856      PI        B2 (3)
  107    42           5.0833100272         138.3238980903     SG+        A1 (1)
  108   204           5.1165468443         139.2283178630      DE        A2 (4)
  109    43           5.1165468443         139.2283178630      DE        A1 (1)
  110    44           5.6685382765         154.2487683581     SG+        A1 (1)
  111   165           5.7566921968         156.6475584823      PI        B2 (3)
  112   113           5.7566921968         156.6475584823      PI        B1 (2)
  113   205           5.8930829207         160.3589387637      PI        A2 (4)
  114    45           5.8930829207         160.3589387637      PI        A1 (1)
  115   166           6.0889616912         165.6890710874      PH        B2 (3)
  116   114           6.0889616912         165.6890710874      PH        B1 (2)
  117    46           6.2376094466         169.7339821511     SG+        A1 (1)
  118    47           6.2875160855         171.0920108355      DE        A1 (1)
  119   206           6.2875160855         171.0920108355      DE        A2 (4)
  120   167           6.3131583441         171.7897721667      PI        B2 (3)
  121   115           6.3131583441         171.7897721668      PI        B1 (2)
  122   168           6.4338874750         175.0749788347      PH        B2 (3)
  123   116           6.4338874750         175.0749788347      PH        B1 (2)
  124    48           6.5684715005         178.7371963528      DE        A1 (1)
  125   207           6.5684715005         178.7371963528      DE        A2 (4)
  126    49           6.9265721522         188.4816104826     SG+        A1 (1)
  127   208           7.1628580965         194.9112779042      DE        A2 (4)
  128    50           7.1628580965         194.9112779042      DE        A1 (1)
  129   117           7.3746573564         200.6746287691      PI        B1 (2)
  130   169           7.3746573564         200.6746287691      PI        B2 (3)
  131    51           7.7157587619         209.9564698914     SG+        A1 (1)
  132    52           8.1558872784         221.9329757006     SG+        A1 (1)
  133   170           8.3296974285         226.6625903316      PI        B2 (3)
  134   118           8.3296974285         226.6625903317      PI        B1 (2)
  135   171          10.1194898125         275.3653171009      PI        B2 (3)
  136   119          10.1194898125         275.3653171010      PI        B1 (2)
  137    53          10.5680668282         287.5717182599     SG+        A1 (1)
  138    54          10.6045855494         288.5654431840      PI        A1 (1)
  139   209          10.6045855494         288.5654431840      PI        A2 (4)
  140   172          10.8501387758         295.2472861723      PH        B2 (3)
  141   120          10.8501387758         295.2472861723      PH        B1 (2)
  142    55          11.0757767286         301.3872070150     SG+        A1 (1)
  143    56          11.0928977421         301.8530934774      DE        A1 (1)
  144   210          11.0928977421         301.8530934774      DE        A2 (4)
  145   173          11.3394476272         308.5620569293      PI        B2 (3)
  146   121          11.3394476272         308.5620569293      PI        B1 (2)
  147    57          11.4850698416         312.5246388352     SG+        A1 (1)
  148   122          11.8551324287         322.5945537756      PH        B1 (2)
  149   174          11.8551324287         322.5945537756      PH        B2 (3)
  150   211          12.2409616361         333.0935002642      DE        A2 (4)
  151    58          12.2409616361         333.0935002644      DE        A1 (1)
  152   175          12.5838147802         342.4230086188      PI        B2 (3)
  153   123          12.5838147802         342.4230086189      PI        B1 (2)
  154   212          12.8458098776         349.5522576637      DE        A2 (4)
  155    59          12.8458098776         349.5522576638      DE        A1 (1)
  156    60          13.1469375772         357.7463589493     SG+        A1 (1)
  157   124          13.9121529916         378.5689289748      PI        B1 (2)
  158   176          13.9121529916         378.5689289749      PI        B2 (3)
  159    61          15.2716386909         415.5624155651     SG+        A1 (1)
  160    62          17.9812168578         489.2937859165     SG+        A1 (1)
  161   177          19.3103671898         525.4618051957      PI        B2 (3)
  162   125          19.3103671898         525.4618051957      PI        B1 (2)
  163    63          20.5658105531         559.6241558919     SG+        A1 (1)
  164    64          26.4882606549         720.7822162790      DE        A1 (1)
  165   213          26.4882606549         720.7822162790      DE        A2 (4)
  166   178          26.9343593226         732.9211781617      PI        B2 (3)
  167   126          26.9343593226         732.9211781617      PI        B1 (2)
  168    65          28.0104230474         762.2023607402     SG+        A1 (1)
  169   179          33.7765835598         919.1075651870      PI        B2 (3)
  170   127          33.7765835598         919.1075651874      PI        B1 (2)
  171    66          34.8806595751         949.1510009428     SG+        A1 (1)
  172    67          36.6187304310         996.4463133799     SG+        A1 (1)
  173    68          47.1103802918        1281.9386202408      DE        A1 (1)
  174   214          47.1103802918        1281.9386202408      DE        A2 (4)
  175   180          47.5901636210        1294.9941883604      PI        B2 (3)
  176   128          47.5901636210        1294.9941883604      PI        B1 (2)
  177    69          48.4419464582        1318.1723777160     SG+        A1 (1)
  178    70          64.1571151700        1745.8038587285     SG+        A1 (1)
  179   181          66.7707491173        1816.9244541351      PI        B2 (3)
  180   129          66.7707491173        1816.9244541351      PI        B1 (2)
  181    71          67.7476503328        1843.5072876542     SG+        A1 (1)
  182   182          98.6522174862        2684.4633132763      PH        B2 (3)
  183   130          98.6522174862        2684.4633132763      PH        B1 (2)
  184   215          98.6713736303        2684.9845784595      DE        A2 (4)
  185    72          98.6713736303        2684.9845784595      DE        A1 (1)
  186   131          98.7302882435        2686.5877265859      PI        B1 (2)
  187   183          98.7302882435        2686.5877265859      PI        B2 (3)
  188    73          98.7445123477        2686.9747841405     SG+        A1 (1)
  189   184         103.2827192563        2810.4656722771      PH        B2 (3)
  190   132         103.2827192563        2810.4656722771      PH        B1 (2)
  191   216         103.3265123039        2811.6573416870      DE        A2 (4)
  192    74         103.3265123040        2811.6573416879      DE        A1 (1)
  193   185         103.3561434878        2812.4636471925      PI        B2 (3)
  194   133         103.3561434878        2812.4636471925      PI        B1 (2)
  195    75         103.4038665778        2813.7622584907     SG+        A1 (1)
  196   217         115.1518784880        3133.4419147677      DE        A2 (4)
  197    76         115.1518784880        3133.4419147678      DE        A1 (1)
  198   186         115.3702649371        3139.3845121638      PI        B2 (3)
  199   134         115.3702649371        3139.3845121638      PI        B1 (2)
  200    77         115.9168617527        3154.2581676764     SG+        A1 (1)
  201   187         117.0285345847        3184.5083233238      PI        B2 (3)
  202   135         117.0285345847        3184.5083233244      PI        B1 (2)
  203    78         117.9117885990        3208.5428869464     SG+        A1 (1)
  204    79         122.7952570260        3341.4288186367     SG+        A1 (1)
  205    80         198.5706838716        5403.3830108301      DE        A1 (1)
  206   218         198.5706838716        5403.3830108301      DE        A2 (4)
  207   188         198.8289437322        5410.4106189149      PI        B2 (3)
  208   136         198.8289437322        5410.4106189152      PI        B1 (2)
  209    81         199.2540654725        5421.9787695822     SG+        A1 (1)
  210    82         216.6391344691        5895.0505474815     SG+        A1 (1)
  211   189         225.1915694545        6127.7741348730      PI        B2 (3)
  212   137         225.1915694545        6127.7741348730      PI        B1 (2)
  213    83         225.9930192302        6149.5826919972     SG+        A1 (1)
  214   190         395.4868581788       10761.7445275644      PI        B2 (3)
  215   138         395.4868581788       10761.7445275651      PI        B1 (2)
  216    84         396.2199837295       10781.6938880049     SG+        A1 (1)
  217    85         509.3571645047       13860.3130908752     SG+        A1 (1)
  218    86         895.4671991721       24366.9012787960     SG+        A1 (1)


  VSCF finished.

 @CHECKOUT-I, Total execution time (CPU/WALL):       47.01/      10.01 seconds.
--executable xvscf finished with status     0 in       10.05 seconds (walltime).
 --invoking executable--
/nfs/workspaces/public/cfour_mpi/bin/xvtran
 @GETMEM-I,  Allocated    3814 MB of main memory.
  Full RHF integral transformation
  Transformation of IIII integrals :
  1 pass through the AO integral file was required.
     4573770 AO integrals were read.
     8797660 MO integrals were written to HF2.
  Transformation of IIJJ integrals :
  1 pass through the AO integral file was required.
    10352246 AO integrals were read.
    14610264 MO integrals were written to HF2.
  Transformation of IJIJ integrals :
  1 pass through the AO integral file was required.
    19644814 AO integrals were read.
    27445737 MO integrals were written to HF2.
  Transformation of IJKL integrals :
  1 pass through the AO integral file was required.
    14534238 AO integrals were read.
    18535493 MO integrals were written to HF2.
  Summary of active molecular orbitals: 
------------------------------------------------------------------------
 
  Index      Eigenvalue    Symmetry    Index      Eigenvalue    Symmetry
------------------------------------------------------------------------
     1       -20.6667036        1       110         4.2063682        2
     2       -11.3832841        1       111         4.2309978        2
     3        -1.4871472        1       112         4.7868395        2
     4        -0.8004221        1       113         5.0505423        2
     5        -0.5604282        1       114         5.7566922        2
     6        -0.6189501        2       115         6.0889617        2
     7        -0.6189501        3       116         6.3131583        2
     8         0.0613750        1       117         6.4338875        2
     9         0.0727024        1       118         7.3746574        2
    10         0.1568041        1       119         8.3296974        2
    11         0.2274192        1       120        10.1194898        2
    12         0.2283535        1       121        10.8501388        2
    13         0.3004762        1       122        11.3394476        2
    14         0.3891354        1       123        11.8551324        2
    15         0.5089221        1       124        12.5838148        2
    16         0.5378563        1       125        13.9121530        2
    17         0.6278308        1       126        19.3103672        2
    18         0.7661420        1       127        26.9343593        2
    19         0.7785390        1       128        33.7765836        2
    20         0.8675568        1       129        47.5901636        2
    21         0.8846313        1       130        66.7707491        2
    22         0.8877444        1       131        98.6522175        2
    23         1.1624941        1       132        98.7302882        2
    24         1.4551839        1       133       103.2827193        2
    25         1.5260136        1       134       103.3561435        2
    26         1.6673350        1       135       115.3702649        2
    27         1.7620051        1       136       117.0285346        2
    28         1.7884895        1       137       198.8289437        2
    29         2.1018880        1       138       225.1915695        2
    30         2.1044961        1       139       395.4868582        2
    31         2.1856250        1       140         0.0602589        3
    32         2.3110424        1       141         0.1282912        3
    33         2.3559462        1       142         0.1664823        3
    34         2.4807711        1       143         0.3150054        3
    35         2.8711574        1       144         0.3952390        3
    36         2.9658296        1       145         0.6247810        3
    37         3.4813796        1       146         0.7474107        3
    38         3.7154312        1       147         0.8167693        3
    39         3.9287551        1       148         0.8850239        3
    40         4.1814122        1       149         1.0653101        3
    41         4.2564850        1       150         1.4438699        3
    42         4.3596173        1       151         1.5613717        3
    43         4.4603302        1       152         1.7662241        3
    44         5.0833100        1       153         1.9921874        3
    45         5.1165468        1       154         2.2472321        3
    46         5.6685383        1       155         2.3140362        3
    47         5.8930829        1       156         2.3443042        3
    48         6.2376094        1       157         2.5859934        3
    49         6.2875161        1       158         2.7869025        3
    50         6.5684715        1       159         3.7310565        3
    51         6.9265722        1       160         4.0865711        3
    52         7.1628581        1       161         4.2063682        3
    53         7.7157588        1       162         4.2309978        3
    54         8.1558873        1       163         4.7868395        3
    55        10.5680668        1       164         5.0505423        3
    56        10.6045855        1       165         5.7566922        3
    57        11.0757767        1       166         6.0889617        3
    58        11.0928977        1       167         6.3131583        3
    59        11.4850698        1       168         6.4338875        3
    60        12.2409616        1       169         7.3746574        3
    61        12.8458099        1       170         8.3296974        3
    62        13.1469376        1       171        10.1194898        3
    63        15.2716387        1       172        10.8501388        3
    64        17.9812169        1       173        11.3394476        3
    65        20.5658106        1       174        11.8551324        3
    66        26.4882607        1       175        12.5838148        3
    67        28.0104230        1       176        13.9121530        3
    68        34.8806596        1       177        19.3103672        3
    69        36.6187304        1       178        26.9343593        3
    70        47.1103803        1       179        33.7765836        3
    71        48.4419465        1       180        47.5901636        3
    72        64.1571152        1       181        66.7707491        3
    73        67.7476503        1       182        98.6522175        3
    74        98.6713736        1       183        98.7302882        3
    75        98.7445123        1       184       103.2827193        3
    76       103.3265123        1       185       103.3561435        3
    77       103.4038666        1       186       115.3702649        3
    78       115.1518785        1       187       117.0285346        3
    79       115.9168618        1       188       198.8289437        3
    80       117.9117886        1       189       225.1915695        3
    81       122.7952570        1       190       395.4868582        3
    82       198.5706839        1       191         0.2274192        4
    83       199.2540655        1       192         0.5378563        4
    84       216.6391345        1       193         0.7661420        4
    85       225.9930192        1       194         0.8877444        4
    86       396.2199837        1       195         1.5260136        4
    87       509.3571645        1       196         1.7620051        4
    88       895.4671992        1       197         2.1018880        4
    89         0.0602589        2       198         2.1856250        4
    90         0.1282912        2       199         2.3559462        4
    91         0.1664823        2       200         2.9658296        4
    92         0.3150054        2       201         3.7154312        4
    93         0.3952390        2       202         4.1814122        4
    94         0.6247810        2       203         4.3596173        4
    95         0.7474107        2       204         5.1165468        4
    96         0.8167693        2       205         5.8930829        4
    97         0.8850239        2       206         6.2875161        4
    98         1.0653101        2       207         6.5684715        4
    99         1.4438699        2       208         7.1628581        4
   100         1.5613717        2       209        10.6045855        4
   101         1.7662241        2       210        11.0928977        4
   102         1.9921874        2       211        12.2409616        4
   103         2.2472321        2       212        12.8458099        4
   104         2.3140362        2       213        26.4882607        4
   105         2.3443042        2       214        47.1103803        4
   106         2.5859934        2       215        98.6713736        4
   107         2.7869025        2       216       103.3265123        4
   108         3.7310565        2       217       115.1518785        4
   109         4.0865711        2       218       198.5706839        4
------------------------------------------------------------------------
  -20.6667036329966       -11.3832841131981       -1.48714720931013     
 -0.800422131598527      -0.560428184288983      -0.618950134176330     
 -0.618950134176344       6.137502103944260E-002  7.270240146633064E-002
  0.156804087694621       0.227419230761203       0.228353465124389     
  0.300476217011509       0.389135437879037       0.508922130857371     
  0.537856265809621       0.627830799472661       0.766141953702277     
  0.778538959070844       0.867556847681190       0.884631260808821     
  0.887744395409456        1.16249406495505        1.45518388687300     
   1.52601363018819        1.66733500592988        1.76200512383332     
   1.78848952583519        2.10188800621369        2.10449611076972     
   2.18562504360471        2.31104244433994        2.35594618784420     
   2.48077110193973        2.87115735154870        2.96582956441448     
   3.48137962743372        3.71543123449150        3.92875511534396     
   4.18141215668069        4.25648497914250        4.35961725655673     
   4.46033022208252        5.08331002716704        5.11654684425200     
   5.66853827645099        5.89308292072068        6.23760944660674     
   6.28751608547510        6.56847150052519        6.92657215224815     
   7.16285809652039        7.71575876187822        8.15588727843111     
   10.5680668282336        10.6045855494439        11.0757767286091     
   11.0928977421027        11.4850698415875        12.2409616360930     
   12.8458098776327        13.1469375772084        15.2716386909287     
   17.9812168578126        20.5658105530914        26.4882606548754     
   28.0104230474444        34.8806595750944        36.6187304310259     
   47.1103802918285        48.4419464581866        64.1571151699880     
   67.7476503327726        98.6713736303282        98.7445123477440     
[...]
 Convergence information after     9 iterations: 
 Largest element of residual vector : -0.11693271E-04.
 Largest element of DIIS residual   : -0.60242756E-05.
 Convergence information after    10 iterations: 
 Largest element of residual vector : -0.66966222E-05.
 Largest element of DIIS residual   : -0.46166126E-05.
 Convergence information after    11 iterations: 
 Largest element of residual vector : -0.28655424E-05.
 Largest element of DIIS residual   : -0.88999702E-06.
 Convergence information after    12 iterations: 
 Largest element of residual vector : -0.12108088E-05.
 Largest element of DIIS residual   :  0.49262858E-06.
 Convergence information after    13 iterations: 
 Largest element of residual vector :  0.39267981E-06.
 Largest element of DIIS residual   :  0.19735216E-06.
 Convergence information after    14 iterations: 
 Largest element of residual vector :  0.17741741E-06.
 Largest element of DIIS residual   :  0.83879907E-07.
 Perturbed amplitude equations converged in    14 iterations.
  Dominant contributions to perturbed wavefunction:
    7    7  141   28   0.2395112466 ABAB
    7    7   28  141   0.2395112466 ABAB
    7    7  141   37  -0.2033723799 ABAB
    7    7   37  141  -0.2033723799 ABAB
    7    7  141   39   0.1598516704 ABAB
    7    7   39  141   0.1598516704 ABAB
    7    7  141   55   0.1596412003 ABAB
    7    7   55  141   0.1596412003 ABAB
    7    6   28   90   0.1563463109 ABAB
    6    7   90   28   0.1563463109 ABAB
    7    7  141   53  -0.1490141132 ABAB
    7    7   53  141  -0.1490141132 ABAB
    7    7  141   44   0.1434513172 ABAB
    7    7   44  141   0.1434513172 ABAB
    7    7  140   28   0.1399952888 ABAB
    7    7   28  140   0.1399952888 ABAB
    5    5  141   44   0.1349083559 ABAB
    5    5   44  141   0.1349083559 ABAB
    7    6   37   90  -0.1331052299 ABAB
    6    7   90   37  -0.1331052299 ABAB
  norm of converged amps    2.31998602024288     
 Starting iterative solution of the perturbed Lambda equations.
 The DIIS procedure is used to accelerate convergence.
 Convergence criterion is 10**(-7).
 Maximum number of iterations is 100.
 Convergence information after     1 iterations: 
 Largest element of residual vector :  0.66181027E-01.
 Largest element of DIIS residual   :  0.66181027E-01.
 Convergence information after     2 iterations: 
 Largest element of residual vector : -0.85489982E-02.
 Largest element of DIIS residual   : -0.48652022E-02.
 Convergence information after     3 iterations: 
 Largest element of residual vector : -0.48914161E-02.
 Largest element of DIIS residual   : -0.42822451E-02.
 Convergence information after     4 iterations: 
 Largest element of residual vector : -0.30341140E-02.
 Largest element of DIIS residual   : -0.24396781E-02.
 Convergence information after     5 iterations: 
 Largest element of residual vector : -0.18530906E-02.
 Largest element of DIIS residual   : -0.89695992E-03.
 Convergence information after     6 iterations: 
 Largest element of residual vector : -0.62016915E-03.
 Largest element of DIIS residual   : -0.15687322E-03.
 Convergence information after     7 iterations: 
 Largest element of residual vector : -0.13631454E-03.
 Largest element of DIIS residual   :  0.53750079E-04.
 Convergence information after     8 iterations: 
 Largest element of residual vector :  0.30202026E-04.
 Largest element of DIIS residual   : -0.24492995E-04.
 Convergence information after     9 iterations: 
 Largest element of residual vector : -0.87513783E-05.
 Largest element of DIIS residual   : -0.58702006E-05.
 Convergence information after    10 iterations: 
 Largest element of residual vector : -0.52243085E-05.
 Largest element of DIIS residual   : -0.39740502E-05.
 Convergence information after    11 iterations: 
 Largest element of residual vector : -0.21775126E-05.
 Largest element of DIIS residual   : -0.85629148E-06.
 Convergence information after    12 iterations: 
 Largest element of residual vector : -0.10731416E-05.
 Largest element of DIIS residual   :  0.69726768E-06.
 Convergence information after    13 iterations: 
 Largest element of residual vector :  0.52812591E-06.
 Largest element of DIIS residual   :  0.35138433E-06.
 Convergence information after    14 iterations: 
 Largest element of residual vector :  0.29373313E-06.
 Largest element of DIIS residual   :  0.14251565E-06.
 Convergence information after    15 iterations: 
 Largest element of residual vector :  0.96117176E-07.
 Largest element of DIIS residual   :  0.44622080E-07.
 Perturbed Lambda equations converged in    15 iterations.
  Dominant contributions to perturbed wavefunction:
    7    7  141   28   0.2244678162 ABAB
    7    7   28  141   0.2244678162 ABAB
    7    7  141   37  -0.1918825504 ABAB
    7    7   37  141  -0.1918825504 ABAB
    7    7  141   39   0.1483283923 ABAB
    7    7   39  141   0.1483283923 ABAB
    7    7  141   55   0.1479075706 ABAB
    7    7   55  141   0.1479075706 ABAB
    7    6   28   90   0.1443461839 ABAB
    6    7   90   28   0.1443461839 ABAB
    7    7  141   53  -0.1387997673 ABAB
    7    7   53  141  -0.1387997673 ABAB
    7    7  140   28   0.1320142066 ABAB
    7    7   28  140   0.1320142066 ABAB
    7    7  141   44   0.1309791364 ABAB
    7    7   44  141   0.1309791364 ABAB
    5    5  141   44   0.1293631812 ABAB
    5    5   44  141   0.1293631812 ABAB
    7    7  141   19  -0.1242032331 ABAB
    7    7   19  141  -0.1242032331 ABAB
        The DBOC first-order density matrix is being calculated 
             (Symmetry block 3, perturbation   2)
 term   6.26249986053949     
 final tnorm  0.880826001357742     
  norm contr. I: |<0|L dT/dx|0>|^2   0.000000000000000E+000
  norm contr. II: <0|[nabla(1+L)e-T][nabla e^T]|0>   6.26249986053949     
  total norm contribution   6.26249986053949     
 oo  9.730175173838469E-003
 vv  -41.7725598959852     
 vo  4.165152473307800E-002
  Correlated perturbed 1-el contribution to DBOC  -41.7211781960783       cm**-1
  SUM_I |dc_I/dx|^2 contribution to DBOC   20.9505592765133       cm**-1
 
 
  The total diagonal Born-Oppenheimer correction (DBOC) is:      0.0038692371 a.u.
  The total diagonal Born-Oppenheimer correction (DBOC) is:        849.199385 cm-1
 
 Total CC energy including DBOC  -113.275275976729     
 First-order density matrix is being calculated  (Symmetry block 3, perturbation   2)
 Calculation of the contributions of <pq||rs> to dI(i,j)/dx required   1.5 seconds.
 Calculation of the contributions of <pq||rs> to dI(a,b)/dx required  15.9 seconds.
 Calculation of the contributions of <pq||rs> to dI(i,a)/dx required   9.8 seconds.
 First-order Z-vector equations are solved for 1 perturbation.
 Convergence reached after  18 iterations.
        U*G(pq,rs) contribution is being calculated
             (Symmetry block 3, perturbation   2)

 CCSD contribution to force constants 

        0.0000000000        0.0000000000        0.0000000000
        0.0000000000        0.0000000000        0.0000000000
        0.0000000000        0.0000000000        0.0000000000
        0.0000000000        0.0000000000        0.0000000000
        0.0000000000        0.0000000000        0.0000000000
        0.0000000000        0.0000000000        0.0000000000
        0.0000000000        0.0000000000        0.0000000000
        0.0000000000        0.0000000000        0.0000000000
        0.0000000000        0.0000000000        0.0000000000
        0.0000000000        0.0000000000        0.0000000000
        0.0000000000        0.0000000000        0.0000000000
        0.0000000000        0.1128849182       -0.1128849182

 CCSD contribution to dipole derivatives 

        0.0000000000        0.0000000000        0.0000000000
        0.0000000000        0.0000000000        0.0000000000
        0.0000000000        0.0000000000        0.0000000000
        0.0000000000        0.0000000000       -0.0466471178
        0.0000000000        0.0000000000        0.0000000000
        0.0000000000        0.0000000000        0.0000000000
 @CHECKOUT-I, Total execution time (CPU/WALL):     1067.39/     352.88 seconds.
--executable xsdcc finished with status     0 in      353.06 seconds (walltime).
 --invoking executable--
/nfs/workspaces/public/cfour_mpi/bin/xanti
 @GETMEM-I,  Allocated    3814 MB of main memory.
 CCSD MO derivative gammas will be sorted to Mulliken order.
 @CHECKOUT-I, Total execution time (CPU/WALL):       11.55/      27.64 seconds.
--executable xanti finished with status     0 in       27.73 seconds (walltime).
 --invoking executable--
/nfs/workspaces/public/cfour_mpi/bin/xbcktrn
 @GETMEM-I,  Allocated    3814 MB of main memory.
 CCSD MO derivative gammas will be transformed to the AO basis.
 @CHECKOUT-I, Total execution time (CPU/WALL):       27.20/      14.86 seconds.
--executable xbcktrn finished with status     0 in       14.89 seconds (walltime).
 --invoking executable--
/nfs/workspaces/public/cfour_mpi/bin/xvdint
 @GETMEM-I,  Allocated    3814 MB of main memory.
 One- and two-electron integral derivatives are calculated
 for RHF-CC/MBPT hessians and dipole derivatives.
 Spherical gaussians are used.
  magnet F F
                    8722  records have been written to the Sort file.
  Total length of Sort file :             178609116  words.
 Evaluation of 2el integral derivatives

                      Two-electron integral gradient
                      ------------------------------

                         C #1 z     0.0000000000
                         O #2 z     0.0000000000


 C #1       0.0000000000           -0.4769673425            0.0000000000
 O #2       0.0000000000            0.4769673425            0.0000000000


 Evaluation of 2e integral derivatives required  362.94 seconds.
  contribution to Hessian
        0.0000000000        0.0000000000        0.0000000000
        0.0000000000       -0.4769673425        0.4769673425
 @CHECKOUT-I, Total execution time (CPU/WALL):      362.92/      77.33 seconds.
--executable xvdint finished with status     0 in       77.50 seconds (walltime).
 --invoking executable--
/nfs/workspaces/public/cfour_mpi/bin/xanti
 @GETMEM-I,  Allocated    3814 MB of main memory.
 CCSD MO gammas will be sorted to Mulliken order.
 @CHECKOUT-I, Total execution time (CPU/WALL):       13.94/      27.69 seconds.
--executable xanti finished with status     0 in       27.78 seconds (walltime).
 --invoking executable--
/nfs/workspaces/public/cfour_mpi/bin/xbcktrn
 @GETMEM-I,  Allocated    3814 MB of main memory.
 CCSD MO gammas will be transformed to the AO basis.
 @CHECKOUT-I, Total execution time (CPU/WALL):       34.66/       8.46 seconds.
--executable xbcktrn finished with status     0 in        8.47 seconds (walltime).
 --invoking executable--
/nfs/workspaces/public/cfour_mpi/bin/xvdint
 @GETMEM-I,  Allocated    3814 MB of main memory.
 One- and two-electron integral derivatives are calculated
 for RHF-CC/MBPT hessians and dipole derivatives.
 Spherical gaussians are used.
  magnet F F

                     Kinetic energy integral gradient
                     --------------------------------

                         C #1 z    -1.3532879725
                         O #2 z     1.3532879725


 C #1       0.0000000000            0.0000000000           -1.3532879725
 O #2       0.0000000000            0.0000000000            1.3532879725



                   Nuclear attraction integral gradient
                   ------------------------------------

                         C #1 z    22.3224602317
                         O #2 z   -22.3224602317


 C #1       0.0000000000            0.0000000000           22.3224602317
 O #2       0.0000000000            0.0000000000          -22.3224602317



                      Reorthonormalization gradient
                      -----------------------------

                         C #1 z     0.0000000000
                         O #2 z     0.0000000000


 C #1       0.0000000000            0.0000000000            0.0000000000
 O #2       0.0000000000            0.0000000000            0.0000000000



                     Kinetic energy integral Hessian
                     -------------------------------


           Symmetry 1

           C #1 z      O #2 z

 C #1 z    1.091046
 O #2 z   -1.091046    1.091046


           Symmetry 2

           C #1 x      O #2 x

 C #1 x   -1.669757
 O #2 x    1.669757   -1.669757


           Symmetry 3

           C #1 y      O #2 y

 C #1 y   -1.669757
 O #2 y    1.669757   -1.669757




           C #1 x      C #1 y      C #1 z      O #2 x      O #2 y      O #2 z

 C #1 x   -1.669757
 C #1 y    0.000000   -1.669757
 C #1 z    0.000000    0.000000    1.091046

 O #2 x    1.669757    0.000000    0.000000   -1.669757
 O #2 y    0.000000    1.669757    0.000000    0.000000   -1.669757
 O #2 z    0.000000    0.000000   -1.091046    0.000000    0.000000    1.091046




                   Nuclear attraction integral Hessian
                   -----------------------------------


           Symmetry 1

           C #1 z      O #2 z

 C #1 z  -13.023959
 O #2 z   13.023959  -13.023959


           Symmetry 2

           C #1 x      O #2 x

 C #1 x   18.704094
 O #2 x  -18.704094   18.704094


           Symmetry 3

           C #1 y      O #2 y

 C #1 y   18.704094
 O #2 y  -18.704094   18.704094




           C #1 x      C #1 y      C #1 z      O #2 x      O #2 y      O #2 z

 C #1 x   18.704094
 C #1 y    0.000000   18.704094
 C #1 z    0.000000    0.000000  -13.023959

 O #2 x  -18.704094    0.000000    0.000000   18.704094
 O #2 y    0.000000  -18.704094    0.000000    0.000000   18.704094
 O #2 z    0.000000    0.000000   13.023959    0.000000    0.000000  -13.023959




                Highest order reorthonormalization Hessian
                ------------------------------------------


           Symmetry 1

           C #1 z      O #2 z

 C #1 z    0.000000
 O #2 z    0.000000    0.000000


           Symmetry 2

           C #1 x      O #2 x

 C #1 x    0.000000
 O #2 x    0.000000    0.000000


           Symmetry 3

           C #1 y      O #2 y

 C #1 y    0.000000
 O #2 y    0.000000    0.000000




           C #1 x      C #1 y      C #1 z      O #2 x      O #2 y      O #2 z




                Electronic contributions to dipole moment
                -----------------------------------------

                               au             Debye

                    z     -0.87946924     -2.23538824

  Conversion factor used: 1 a.u. =   2.54174691 Debye 



   Electronic contributions to static part of dipole moment derivatives
   --------------------------------------------------------------------


                     Total dipole moment derivatives
                     -------------------------------


           Symmetry 1
                              Ez

               C #1 z    -5.68731178
               O #2 z    -8.31268822

           Symmetry 2
                              Ex

               C #1 x    -5.76761680
               O #2 x    -8.23238320

           Symmetry 3
                              Ey

               C #1 y    -5.76761680
               O #2 y    -8.23238320



                       Ex          Ey          Ez

      C #1    x   -5.767617    0.000000    0.000000
      C #1    y    0.000000   -5.767617    0.000000
      C #1    z    0.000000    0.000000   -5.687312

      O #2    x   -8.232383    0.000000    0.000000
      O #2    y    0.000000   -8.232383    0.000000
      O #2    z    0.000000    0.000000   -8.312688

 Evaluation of 1e integral derivatives required    1.79 seconds.
                    8815  records have been written to the Sort file.
  Total length of Sort file :             180513570  words.
 Evaluation of 2el integral derivatives

                      Two-electron integral gradient
                      ------------------------------

                         C #1 z   -10.7442018468
                         O #2 z    10.7442018468


 C #1       0.0000000000            0.0000000000          -10.7442018468
 O #2       0.0000000000            0.0000000000           10.7442018468


 Evaluation of 2e integral derivatives required  703.72 seconds.

                            Molecular gradient
                            ------------------

                         C #1 z     0.5602987366
                         O #2 z    -0.5602987366


 C #1       0.0000000000            0.0000000000            0.5602987366
 O #2       0.0000000000            0.0000000000           -0.5602987366


  Molecular gradient norm 0.792E+00

                            Molecular hessian
                            -----------------


           Symmetry 1

           C #1 z      O #2 z

 C #1 z   57.598123
 O #2 z  -57.598123   57.598123


           Symmetry 2

           C #1 x      O #2 x

 C #1 x    0.559947
 O #2 x   -0.559947    0.559947


           Symmetry 3

           C #1 y      O #2 y

 C #1 y    0.559947
 O #2 y   -0.559947    0.559947




           C #1 x      C #1 y      C #1 z      O #2 x      O #2 y      O #2 z

 C #1 x    0.559947
 C #1 y    0.000000    0.559947
 C #1 z    0.000000    0.000000   57.598123

 O #2 x   -0.559947    0.000000    0.000000    0.559947
 O #2 y    0.000000   -0.559947    0.000000    0.000000    0.559947
 O #2 z    0.000000    0.000000  -57.598123    0.000000    0.000000   57.598123




                           Total dipole moment
                           -------------------

                               au             Debye

                    z      0.01161104      0.02951233

  Conversion factor used: 1 a.u. =   2.54174691 Debye 



                     Total dipole moment derivatives
                     -------------------------------


           Symmetry 1
                              Ez

               C #1 z     0.71547209
               O #2 z    -0.71547209

           Symmetry 2
                              Ex

               C #1 x     0.00479293
               O #2 x    -0.00479293

           Symmetry 3
                              Ey

               C #1 y     0.00479293
               O #2 y    -0.00479293



                       Ex          Ey          Ez

      C #1    x    0.004793    0.000000    0.000000
      C #1    y    0.000000    0.004793    0.000000
      C #1    z    0.000000    0.000000    0.715472

      O #2    x   -0.004793    0.000000    0.000000
      O #2    y    0.000000   -0.004793    0.000000
      O #2    z    0.000000    0.000000   -0.715472

 @CHECKOUT-I, Total execution time (CPU/WALL):      705.50/     119.91 seconds.
--executable xvdint finished with status     0 in      120.08 seconds (walltime).
 --invoking executable--
/nfs/workspaces/public/cfour_mpi/bin/xjoda
  @GTFLGS-I, Hessian will be transformed to curvilinear coordinates.
  @GTFLGS-I, Hessian will be transformed to curvilinear coordinates.
  igrd and ihes are                      0                     1
  gradient from JOBARC 
   0.000000000000000   0.000000000000000   0.560298736622670
   0.000000000000000   0.000000000000000  -0.560298736622670
 
  @PROJFCM-I, Projecting force constant matrix onto totally symmetric subspace.
  Largest difference between matrix elements of symmetrized
  and unsymmetrized FCM :    -0.1506017533E-10.
  read isotopes from ZMAT file 
 
  Summary of diagonal Born-Oppenheimer correction at the correlated level
  The total diagonal Born-Oppenheimer correction (DBOC) is:      0.0038692371 a.u.
  The total diagonal Born-Oppenheimer correction (DBOC) is:        849.199385 cm-1
  The total diagonal Born-Oppenheimer correction (DBOC) is:            10.159 kJ/mole
  hellooooooo 
  readis is  F
 
 @CHECKOUT-I, Total execution time (CPU/WALL):        0.02/       0.12 seconds.
--executable xjoda finished with status     0 in        0.20 seconds (walltime).
  The final electronic energy is      -113.275275976729105 a.u. 
  This computation required                         4084.41 seconds (walltime).
