 --invoking executable--
/nfs/workspaces/public/cfour_mpi/bin/xjoda


   *************************************************************************
         <<<     CCCCCC     CCCCCC   |||     CCCCCC     CCCCCC   >>>
       <<<      CCC        CCC       |||    CCC        CCC         >>>
      <<<      CCC        CCC        |||   CCC        CCC            >>>
    <<<        CCC        CCC        |||   CCC        CCC              >>>
      <<<      CCC        CCC        |||   CCC        CCC            >>>
       <<<      CCC        CCC       |||    CCC        CCC         >>>
         <<<     CCCCCC     CCCCCC   |||     CCCCCC     CCCCCC   >>>
   *************************************************************************

     ****************************************************************
     * CFOUR Coupled-Cluster techniques for Computational Chemistry *
     ****************************************************************
 

   Department of Chemistry                Institut fuer Physikalische Chemie
   University of Florida                  Universitaet Mainz
   Gainesville, FL 32611, USA             D-55099 Mainz, Germany

   Department of Chemistry                Fakultaet fuer Chemie und Biowiss.
   Johns Hopkins University               Karlsruher Institut fuer Technologie
   Baltimore, MD 21218, USA               D-76131 Karlsruhe, Germany

   Department of Chemistry                Department of Physical Chemistry
   Southern Methodist University          Eotvos Lorand University
   Dallas, TX 75275, USA                  H-1053 Budapest, Hungary

 
                       Version 2.1
 
                     vincent.theory.phys.ucl.ac.uk                     
                     Sun  2 Mar 14:02:58 GMT 2025                      
                     integer*8 version is running
 
********************************************************************************
*                          Input from ZMAT file                                *
********************************************************************************
Carbon Monoxide DBOC calculation                                                
C                                                                               
O 1 r                                                                           
                                                                                
r=1.3344827586206895                                                            
                                                                                
                                                                                
*CFOUR(CALC=CCSD,BASIS=AUG-PCVQZ,SCF_CONV=10                                    
CC_CONV=14,DBOC=ON,MEMORY=500000000                                             
ZFIELD=-200)                                                                    
                                                                                
%isotopes                                                                       
12                                                                              
18                                                                              
********************************************************************************
  @GTFLGS-I, Hessian will be transformed to curvilinear coordinates.
    -------------------------------------------------------------------
                    CFOUR Control Parameters 
    -------------------------------------------------------------------
        External           Internal           Value            Units
          Name               Name
    -------------------------------------------------------------------
       ABCDTYPE             IABCDT         STANDARD    [  0]    ***   
       ANHARMONIC           IANHAR         OFF         [  0]    ***   
       ANH_ALGORIT          IANALG         STANDARD    [  0]    ***   
       ANH_DERIVAT          IANDER         SECOND      [  1]    ***   
       ANH_MODE             ANHMOD         VIBRATION   [  0]    ***   
       ANH_STEPSIZ          ICUBST             50000          x 10-6  
       ANH_SYMMETR          IANHSM         ABELIAN     [  0]    ***   
       AO_LADDERS           IAOLAD         SINGLEPASS  [  1]    ***   
       AV_SCF               IAVSCF         OFF         [  0]    ***   
       BASIS                IBASIS         AUG-PCVQZ   [ 52]    ***   
       BOTHVECTORS          BOTHVC         OFF         [  0]    ***   
       BOX_POTENT           IPIAB          OFF         [  0]    ***   
       BREIT                IBREIT         OFF         [  0]    ***   
       BRUCK_CONV           IBRTOL          10D-  4             ***   
       BRUECKNER            IBRKNR         OFF         [  0]    ***   
       BUFFERSIZE           IBUFFS              4096            ***   
       CACHE_RECS           ICHREC             10               ***   
       CALCLEVEL            ICLLVL         CCSD        [ 10]    ***   
       CCORBOPT             ICCORB         OFF         [  0]  x 0.01  
       CC_CONV              ICCCNV          10D- 14             ***   
       CC_EXPORDER          ICCEOR              5               ***   
       CC_EXTRAPOL          ICCEXT         DIIS        [  1]    ***   
       CC_GUESS             ICCGES         MP2         [  0]    ***   
       CC_MAXCYC            ICCCYC            100              cycles 
       CC_PROGRAM           ICCPRO         VCC         [  0]    ***   
       CHARGE               ICHRGE              0               ***   
       CHOLESKY             ICHOLE         OFF         [  0]    ***   
       CIS_CONV             ICISTL              5               ***   
       COMM_SIZE            IPSIZE            ***               ***   
       CONSTANT             ICONST         OLD         [  1]    ***   
       CONTINUUM            ICONTU         NONE        [  0]    ***   
       CONTRACTION          ICNTYP         GENERAL     [  1]    ***   
       COORDINATES          ICOORD         INTERNAL    [  0]    ***   
       CPHF_CONVER          ICPHFT          10D- 16             ***   
       CPHF_MAXCYC          ICPHFC             64              cycles 
       CUBIC                ICUBIC         OFF         [  0]    ***   
       CURVILINEAR          ICURVY         ON          [  1]    ***   
       DBOC                 IDBOC          ON          [  1]    ***   
       DCT                  IDCT           OFF         [  0]    ***   
       DERIV_LEV            IDRLVL         SECOND      [  2]    ***   
       DEVMEM_SIZE          IDVMEM          50000000           MByte  
       DIAG_MRCC            IEOMST          10D-  0             ***   
       DIFF_TYPE            IDIFTY         RELAXED     [  0]    ***   
       DIRECT               IDIRCT         OFF         [  0]    ***   
       DROPMO               IDRPMO      NONE         
       ECP                  IECP           OFF         [  0]    ***   
       EIGENVECTOR          IVEC                1               ***   
       EL_ANHARM            IELANH         OFF         [  0]    ***   
       EOMFOLLOW            IEOMSR         ENERGY      [  0]    ***   
       EOMIP                IEOMIP         OFF         [  0]    ***   
       EOMLEVEL             HBARFM         SAME        [  0]    ***   
       EOM_MRCC             IMRCCE         NEW         [  1]    ***   
       EOM_NONIT            EOMNON         OFF         [  0]    ***   
       EOM_NSING            IEOMSI          10D-  0             ***   
       EOM_NSTATES          IMRCCD         DAVIDSON    [  0]    ***   
       EOM_NTRIP            IEOMTR          10D-  0             ***   
       EOM_ORDER            IEXORD         ENERGY      [  0]    ***   
       EOM_PROPSTA          IEOMST              0               ***   
       ESTATE_CONV          IEXTOL          10D-  5             ***   
       ESTATE_DIAG          IEXDIG         ITERATIVE   [  0]    ***   
       ESTATE_LOCK          IESLOC         ON          [  1]    ***   
       ESTATE_MAXC          IEXMXC             40               ***   
       ESTATE_PROP          IEXPRP         OFF         [  0]    ***   
       EVAL_HESS            IRECAL              0            # of cyc.
       EXCITATION           IEXCIT              0               ***   
       EXCITE               IEXCIT         NONE        [  0]    ***   
       EXTERN_POT           IEXPOT         OFF         [  0]    ***   
       FCGRADNEW            IFCGNW         OFF         [  0]    ***   
       FC_FIELD             IFINFC              0             x 10-6  
       FD_CALTYPE           IFDCAL         GRADONLY    [  0]    ***   
       FD_PROJECT           IFDPRJ         OFF         [  1]    ***   
       FD_STEPSIZE          IDISFD              0            10-4 bohr
       FD_USEGROUP          IFDGRP         FULL        [  0]    ***   
       FILE_RECSIZ          IFLREC              4096           words  
       FINITE_PERT          IFIPER              0             x 10-6  
       FIXGEOM              IFIXGM         OFF         [  0]    ***   
       FOCK                 IFOCK          AO          [  1]    ***   
       FREQ_ALGORI          IVIALG         STANDARD    [  0]    ***   
       FROZEN_CORE          IFROCO         OFF         [  0]    ***   
       GAMMA_ABCD           IGABCD         STORE       [  0]    ***   
       GAMMA_ABCI           IGABCI         STORE       [  0]    ***   
       GENBAS_1             IGNBS1              0               ***   
       GENBAS_2             IGNBS2              0               ***   
       GENBAS_3             IGNBS3              0               ***   
       GENBAS_4             IGNBS4              0               ***   
       GEO_CONV             ICONTL              5              H/bohr 
       GEO_MAXCYC           IOPTCY             50               ***   
       GEO_MAXSTEP          IMXSTP            300            millibohr
       GEO_METHOD           INR            SINGLE_POINT[  5]    ***   
       GIAO                 IGIAO          OFF         [  1]    ***   
       GIMIC                IGIMIC         OFF         [  0]    ***   
       GRID                 IGRID          OFF         [  0]    ***   
       GRID_ALGO            IGALGO         SERIAL      [  0]    ***   
       GUESS                IGUESS         MOREAD      [  0]    ***   
       HBAR                 IHBAR          OFF         [  0]    ***   
       HESS_TYPE            IHESTP         SCF         [  0]    ***   
       HF2_FILE             IHF2Fl         USE         [  1]    ***   
       HFSTABILITY          ISTABL         OFF         [  0]    ***   
       INCORE               INCORE         OFF         [  0]    ***   
       INPUT_MRCC           IMRCC          ON          [  1]    ***   
       INTEGRALS            INTTYP         VMOL        [  1]    ***   
       JODA_PRINT           IJPRNT              0               ***   
       KEYWORD_OUT          IDMPKW         NO          [  0]    ***   
       LINDEP_TOL           ILINDP              8               ***   
       LINEQ_CONV           IZTACN          10D-  7           cycles  
       LINEQ_EXPOR          ILMAXD              5               ***   
       LINEQ_MAXCY          ILMAXC            100               ***   
       LINEQ_TYPE           ILTYPE         DIIS        [  1]    ***   
       LOCK_ORBOCC          ILOCOC         OFF         [  0]    ***   
       MEMORY_SIZE          IMEMSZ         500000000           words  
       MEM_UNIT             IMEMU          INTEGERWORDS[  0]    ***   
       MRCC                 IMRCCC         OFF         [  0]    ***   
       MULTIPLICTY          IMULTP              1               ***   
       NACOUPLING           IVCOUP         OFF         [  0]    ***   
       NEGEVAL              IDIE           ABORT       [  0]    ***   
       NEWNORM              INEWNO         OFF         [  0]    ***   
       NON-HF               INONHF         OFF         [  0]    ***   
       NTOP_TAMP            ITOPT2             15               ***   
       NUC_MODEL            INUCMO         POINT       [  0]    ***   
       OCCUPATION           IOCCU   ESTIMATED BY SCF 
       OPEN-SHELL           IOPEN          SPIN-ORBITAL[  0]    ***   
       OPTVIB               IOPTVB         OFF         [  0]    ***   
       ORBITALS             IORBTP         STANDARD    [  0]    ***   
       PARALLEL             IPARAL         ON          [  1]    ***   
       PARA_INT             IPINTS         ON          [  1]    ***   
       PARA_PRINT           IPPRIN              0               ***   
       PERT_ORB             IPTORB         STANDARD    [  0]    ***   
       POINTS               IGRDFD              0               ***   
       PRINT                IPRNT               0               ***   
       PROPS                IPROPS         OFF         [  0]    ***   
       PROP_INTEGR          IINTYP         INTERNAL    [  0]    ***   
       PSI                  IPSI           OFF         [  0]    ***   
       QC_ALG               IQCALG         FLM         [  0]    ***   
       QC_LINALG            IQCLIN         TRIDIAG     [  2]    ***   
       QC_MAXCYC            IQCMAX          10D-100           cycles  
       QC_MAXSCFCY          IQCMSC          10D- 15           cycles  
       QC_RTRUST            IQCRTR          10D-  0           x 10-3  
       QC_SKIPSCF           IQCSKI         OFF         [  0]    ***   
       QC_START             IQCSTA          10D-  1             ***   
       QRHFGUESS            IQGUES         OFF         [  0]    ***   
       QUARTIC              IQUART         OFF         [  0]    ***   
       RAMAN_INT            IRAMIN         OFF         [  0]    ***   
       RAMAN_ORB            IRAMRE         UNRELAXED   [  0]    ***   
       RDO                  IRDOFM         ON          [  1]    ***   
       REDUCE_REPR          REDREP         Ir          [  0]    ***   
       REFERENCE            IREFNC         RHF         [  0]    ***   
       RELATIVIST           IRELAT         OFF         [  0]    ***   
       RELAX_DENS           IRDENS         ON          [  1]    ***   
       RESET_FLAGS          IRESET         OFF         [  0]    ***   
       RESTART_CC           ICCRES         OFF         [  0]    ***   
       ROT_EVEC             ROTVEC              0               ***   
       SAVE_INTS            ISVINT         OFF         [  0]    ***   
       SCALE_ON             ISTCRT              0               ***   
       SCF_CONV             ISCFCV          10D- 10             ***   
       SCF_DAMPING          IDAMP               0             x 10-3  
       SCF_EXPORDE          IRPPOR              6               ***   
       SCF_EXPSTAR          IRPPLS              8               ***   
       SCF_EXTRAPO          IRPP           ON          [  1]    ***   
       SCF_MAXCYC           ISCFCY            150              cycles 
       SCF_NOSTOP           ISCFST         OFF         [  0]    ***   
       SCF_PRINT            ISCFPR              0               ***   
       SCF_PROG             ISCFPR         SCF         [  0]    ***   
       SD_FIELD             IFINSD              0             x 10-6  
       SOPERT               IPERSO         OFF         [  0]    ***   
       SPHERICAL            IDFGHI         ON          [  1]    ***   
       SPINORBIT            ISOCAL         OFF         [  0]    ***   
       SPINROTATIO          ISRCON         OFF         [  0]    ***   
       SPIN_FLIP            ISPFLP         OFF         [  0]    ***   
       SPIN_ORBIT           ISPORB         OFF         [  0]    ***   
       SPIN_SCAL            ISCSMP         OFF         [  0]    ***   
       STEEPSCALE           ISTPSC              1000          x 10-3  
       SUBGROUP             ISUBGP         DEFAULT     [  0]    ***   
       SUBGRPAXIS           ISBXYZ         X           [  0]    ***   
       SYMMETRY             ISYM           ON          [  0]    ***   
       SYM_CHECK            ISYMCK         OVERRIDE    [  1]    ***   
       T3_EXTRAPOL          IT3EXT         OFF         [  0]    ***   
       T4_EXTRAPOL          IT4EXP         OFF         [  0]    ***   
       TAMP_SUM             IEVERY              5               ***   
       TESTSUITE            ITESTS         OFF         [  0]    ***   
       THERMOCH             ITHERM         OFF         [  0]    ***   
       TOL_CHOLESK          ITOLCH          10D-  4             ***   
       TRANGRAD             IRESRM         OFF         [  0]    ***   
       TRANS_INV            ITRAIN         IGNORE      [  1]    ***   
       TREAT_PERT           ITREAT         SIMULTANEOUS[  0]    ***   
       TRIP_ALGORI          ITRALG         NORMAL      [  0]    ***   
       UIJ_THRESHO          IUIJTH              1               ***   
       UNITS                IUNITS         ANGSTROM    [  0]    ***   
       UNOS                 IUNOS          OFF         [  0]    ***   
       UPDATE_HESS          IHUPDT         ON          [  1]    ***   
       VIBPHASE             ISETPH         STANDARD    [  0]    ***   
       VIBRATION            IVIB           ANALYTIC    [  1]    ***   
       VIB_ALGORIT          IGEALG         STANDARD    [  0]    ***   
       VNATORB              IVNORB         OFF         [  0]    ***   
       VTRAN                IVTRAN         FULL/PARTIAL[  0]    ***   
       XFIELD               IXEFLD              0             x 10-6  
       XFORM_TOL            IXFTOL          10D- 11             ***   
       YFIELD               IYEFLD              0             x 10-6  
       ZFIELD               IZEFLD            ***             x 10-6  
       ZSCALE_EXP           IZEXPS         OFF         [  0]    ***   
    -------------------------------------------------------------------
   2 entries found in Z-matrix 
   Job Title : Carbon Monoxide DBOC calculation                                                
   There are  1 unique internal coordinates.
   Of these,  0 will be optimized.
   User supplied Z-matrix: 
--------------------------------------------------------------------------------
       SYMBOL    BOND      LENGTH    ANGLE     ANGLE     DIHED     ANGLE
                  TO      (ANGST)    WRT      (DEG)      WRT      (DEG)
--------------------------------------------------------------------------------
        C    
        O          1         r    
                  *Initial values for internal coordinates* 
                      Name             Value
                        r               1.3344827586
--------------------------------------------------------------------------------
  read isotopes from ZMAT file 
   Rotational constants (in cm-1): 
          1.3147592311             1.3147592311
   Rotational constants (in MHz): 
      39415.4956784414         39415.4956784414
********************************************************************************
   The full molecular point group is CXv .
   The largest Abelian subgroup of the full molecular point group is C2v .
   The computational point group is C2v .
********************************************************************************
--------------------------------------------------------------------------------
   Analysis of internal coordinates specified by Z-matrix 
--------------------------------------------------------------------------------
   *The nuclear repulsion energy is   19.033967007751937 a.u.
   *There is   1 degree of freedom within the tot. symm. molecular subspace.
   *Z-matrix requests optimization of   0 coordinates.
   *The optimization is constrained.
   *The following   1 parameters can have non-zero 
    derivatives within the totally symmetric subspace:
             r    [ 1]
   *The following   0 parameters are to be optimized:

   *The following coordinates must be varied in an  unconstrained optimization.
             r    [ 1]
--------------------------------------------------------------------------------


 ----------------------------------------------------------------
         Coordinates used in calculation (QCOMP) 
 ----------------------------------------------------------------
 Z-matrix   Atomic            Coordinates (in bohr)
  Symbol    Number           X              Y              Z
 ----------------------------------------------------------------
     C         6        -0.00000000     0.00000000     1.51305624
     O         8         0.00000000     0.00000000    -1.00875122
 ----------------------------------------------------------------
 
   Interatomic distance matrix (Angstroms) 
 
                 C             O    
                [ 1]        [ 2]
  C    [ 1]     0.00000
  O    [ 2]     1.33448     0.00000
 rotcon2
   Rotational constants (in cm-1): 
          1.3147592311             0.0000000000
   Rotational constants (in MHz): 
      39415.4956784414             0.0000000000
  ECPDATA file not present.   Using default ECPDATA. 
  @GTFLGS-I, Hessian will be transformed to curvilinear coordinates.
  There are  218 basis functions.
 @CHECKOUT-I, Total execution time (CPU/WALL):        0.28/       0.37 seconds.
--executable xjoda finished with status     0 in        0.40 seconds (walltime).
 --invoking executable--
/nfs/workspaces/public/cfour_mpi/bin/xvmol
 SERIAL VERSION OF MOLECULE STARTED
********************************************************************************
                    INPUT FROM MOL FILE
********************************************************************************
INTGRL        1    0    1    0    0    0    0    0    0                         
         *** CFOUR Program System (Release V0.1) ***                            
Carbon Monoxide DBOC calculation                                                
    2    2 X  Y       0.10E-08              0    0                              
   9999.00      3.00                                                            
          6.00000000    1    5    1    1    1    1    1                         
C #1  -0.000000000000000   0.000000000000000   1.513056241256928                
   16    9                                                                      
   33980.0000000000       9.100000000000000E-005 -1.900000000000000E-005        
  0.000000000000000E+000  0.000000000000000E+000  0.000000000000000E+000        
  0.000000000000000E+000  0.000000000000000E+000  0.000000000000000E+000        
  0.000000000000000E+000                                                        
   5089.00000000000       7.040000000000000E-004 -1.510000000000000E-004        
  0.000000000000000E+000  0.000000000000000E+000  0.000000000000000E+000        
  0.000000000000000E+000  0.000000000000000E+000  0.000000000000000E+000        
  0.000000000000000E+000                                                        
   1157.00000000000       3.693000000000000E-003 -7.850000000000000E-004        
  0.000000000000000E+000  0.000000000000000E+000  0.000000000000000E+000        
  0.000000000000000E+000  0.000000000000000E+000  0.000000000000000E+000        
  0.000000000000000E+000                                                        
   326.600000000000       1.536000000000000E-002 -3.324000000000000E-003        
  0.000000000000000E+000  0.000000000000000E+000  0.000000000000000E+000        
  0.000000000000000E+000  0.000000000000000E+000  0.000000000000000E+000        
  0.000000000000000E+000                                                        
   106.100000000000       5.292900000000000E-002 -1.151200000000000E-002        
  0.000000000000000E+000  0.000000000000000E+000  0.000000000000000E+000        
  0.000000000000000E+000  0.000000000000000E+000  0.000000000000000E+000        
  0.000000000000000E+000                                                        
   38.1100000000000       0.147043000000000      -3.416000000000000E-002        
  0.000000000000000E+000  0.000000000000000E+000  0.000000000000000E+000        
  0.000000000000000E+000  0.000000000000000E+000  0.000000000000000E+000        
  0.000000000000000E+000                                                        
   14.7500000000000       0.305631000000000      -7.717300000000001E-002        
  0.000000000000000E+000  0.000000000000000E+000  0.000000000000000E+000        
  0.000000000000000E+000  0.000000000000000E+000  0.000000000000000E+000        
  0.000000000000000E+000                                                        
   6.03500000000000       0.399345000000000      -0.141493000000000             
  0.000000000000000E+000  0.000000000000000E+000  0.000000000000000E+000        
  0.000000000000000E+000  0.000000000000000E+000  0.000000000000000E+000        
  0.000000000000000E+000                                                        
   2.53000000000000       0.217051000000000      -0.118019000000000             
  0.000000000000000E+000  0.000000000000000E+000  0.000000000000000E+000        
  0.000000000000000E+000  0.000000000000000E+000  0.000000000000000E+000        
  0.000000000000000E+000                                                        
  0.735500000000000       1.589400000000000E-002  0.273806000000000             
   1.00000000000000       0.000000000000000E+000  0.000000000000000E+000        
  0.000000000000000E+000  0.000000000000000E+000  0.000000000000000E+000        
  0.000000000000000E+000                                                        
  0.290500000000000      -3.084000000000000E-003  0.586510000000000             
  0.000000000000000E+000   1.00000000000000       0.000000000000000E+000        
  0.000000000000000E+000  0.000000000000000E+000  0.000000000000000E+000        
  0.000000000000000E+000                                                        
  0.111100000000000       9.779999999999999E-004  0.285430000000000             
  0.000000000000000E+000  0.000000000000000E+000   1.00000000000000             
  0.000000000000000E+000  0.000000000000000E+000  0.000000000000000E+000        
  0.000000000000000E+000                                                        
   7.21600000000000       0.000000000000000E+000  0.000000000000000E+000        
  0.000000000000000E+000  0.000000000000000E+000  0.000000000000000E+000        
   1.00000000000000       0.000000000000000E+000  0.000000000000000E+000        
  0.000000000000000E+000                                                        
   19.5700000000000       0.000000000000000E+000  0.000000000000000E+000        
  0.000000000000000E+000  0.000000000000000E+000  0.000000000000000E+000        
  0.000000000000000E+000   1.00000000000000       0.000000000000000E+000        
  0.000000000000000E+000                                                        
   53.0730000000000       0.000000000000000E+000  0.000000000000000E+000        
  0.000000000000000E+000  0.000000000000000E+000  0.000000000000000E+000        
  0.000000000000000E+000  0.000000000000000E+000   1.00000000000000             
  0.000000000000000E+000                                                        
  4.145000000000000E-002  0.000000000000000E+000  0.000000000000000E+000        
  0.000000000000000E+000  0.000000000000000E+000  0.000000000000000E+000        
  0.000000000000000E+000  0.000000000000000E+000  0.000000000000000E+000        
   1.00000000000000                                                             
   10    8                                                                      
   34.5100000000000       5.378000000000000E-003  0.000000000000000E+000        
  0.000000000000000E+000  0.000000000000000E+000  0.000000000000000E+000        
  0.000000000000000E+000  0.000000000000000E+000  0.000000000000000E+000        
   7.91500000000000       3.613200000000000E-002  0.000000000000000E+000        
  0.000000000000000E+000  0.000000000000000E+000  0.000000000000000E+000        
  0.000000000000000E+000  0.000000000000000E+000  0.000000000000000E+000        
   2.36800000000000       0.142493000000000       0.000000000000000E+000        
  0.000000000000000E+000  0.000000000000000E+000  0.000000000000000E+000        
  0.000000000000000E+000  0.000000000000000E+000  0.000000000000000E+000        
  0.813200000000000       0.342150000000000        1.00000000000000             
  0.000000000000000E+000  0.000000000000000E+000  0.000000000000000E+000        
  0.000000000000000E+000  0.000000000000000E+000  0.000000000000000E+000        
  0.289000000000000       0.463864000000000       0.000000000000000E+000        
   1.00000000000000       0.000000000000000E+000  0.000000000000000E+000        
  0.000000000000000E+000  0.000000000000000E+000  0.000000000000000E+000        
  0.100700000000000       0.250028000000000       0.000000000000000E+000        
  0.000000000000000E+000   1.00000000000000       0.000000000000000E+000        
  0.000000000000000E+000  0.000000000000000E+000  0.000000000000000E+000        
   8.18200000000000       0.000000000000000E+000  0.000000000000000E+000        
  0.000000000000000E+000  0.000000000000000E+000   1.00000000000000             
  0.000000000000000E+000  0.000000000000000E+000  0.000000000000000E+000        
   24.1860000000000       0.000000000000000E+000  0.000000000000000E+000        
  0.000000000000000E+000  0.000000000000000E+000  0.000000000000000E+000        
   1.00000000000000       0.000000000000000E+000  0.000000000000000E+000        
   71.4940000000000       0.000000000000000E+000  0.000000000000000E+000        
  0.000000000000000E+000  0.000000000000000E+000  0.000000000000000E+000        
  0.000000000000000E+000   1.00000000000000       0.000000000000000E+000        
  3.218000000000000E-002  0.000000000000000E+000  0.000000000000000E+000        
  0.000000000000000E+000  0.000000000000000E+000  0.000000000000000E+000        
  0.000000000000000E+000  0.000000000000000E+000   1.00000000000000             
    6    6                                                                      
   1.84800000000000        1.00000000000000       0.000000000000000E+000        
  0.000000000000000E+000  0.000000000000000E+000  0.000000000000000E+000        
  0.000000000000000E+000                                                        
  0.649000000000000       0.000000000000000E+000   1.00000000000000             
  0.000000000000000E+000  0.000000000000000E+000  0.000000000000000E+000        
  0.000000000000000E+000                                                        
  0.228000000000000       0.000000000000000E+000  0.000000000000000E+000        
   1.00000000000000       0.000000000000000E+000  0.000000000000000E+000        
  0.000000000000000E+000                                                        
   8.65600000000000       0.000000000000000E+000  0.000000000000000E+000        
  0.000000000000000E+000   1.00000000000000       0.000000000000000E+000        
  0.000000000000000E+000                                                        
   33.2130000000000       0.000000000000000E+000  0.000000000000000E+000        
  0.000000000000000E+000  0.000000000000000E+000   1.00000000000000             
  0.000000000000000E+000                                                        
  7.660000000000000E-002  0.000000000000000E+000  0.000000000000000E+000        
  0.000000000000000E+000  0.000000000000000E+000  0.000000000000000E+000        
   1.00000000000000                                                             
    4    4                                                                      
   1.41900000000000        1.00000000000000       0.000000000000000E+000        
  0.000000000000000E+000  0.000000000000000E+000                                
  0.485000000000000       0.000000000000000E+000   1.00000000000000             
  0.000000000000000E+000  0.000000000000000E+000                                
   24.6940000000000       0.000000000000000E+000  0.000000000000000E+000        
   1.00000000000000       0.000000000000000E+000                                
  0.187000000000000       0.000000000000000E+000  0.000000000000000E+000        
  0.000000000000000E+000   1.00000000000000                                     
    2    2                                                                      
   1.01100000000000        1.00000000000000       0.000000000000000E+000        
  0.424000000000000       0.000000000000000E+000   1.00000000000000             
          8.00000000    1    5    1    1    1    1    1                         
O #2   0.000000000000000   0.000000000000000  -1.008751219082322                
   16    9                                                                      
   61420.0000000000       9.000000000000001E-005 -2.000000000000000E-005        
  0.000000000000000E+000  0.000000000000000E+000  0.000000000000000E+000        
  0.000000000000000E+000  0.000000000000000E+000  0.000000000000000E+000        
  0.000000000000000E+000                                                        
   9199.00000000000       6.980000000000001E-004 -1.590000000000000E-004        
  0.000000000000000E+000  0.000000000000000E+000  0.000000000000000E+000        
  0.000000000000000E+000  0.000000000000000E+000  0.000000000000000E+000        
  0.000000000000000E+000                                                        
   2091.00000000000       3.664000000000000E-003 -8.290000000000000E-004        
  0.000000000000000E+000  0.000000000000000E+000  0.000000000000000E+000        
  0.000000000000000E+000  0.000000000000000E+000  0.000000000000000E+000        
  0.000000000000000E+000                                                        
   590.900000000000       1.521800000000000E-002 -3.508000000000000E-003        
  0.000000000000000E+000  0.000000000000000E+000  0.000000000000000E+000        
  0.000000000000000E+000  0.000000000000000E+000  0.000000000000000E+000        
  0.000000000000000E+000                                                        
   192.300000000000       5.242300000000000E-002 -1.215600000000000E-002        
  0.000000000000000E+000  0.000000000000000E+000  0.000000000000000E+000        
  0.000000000000000E+000  0.000000000000000E+000  0.000000000000000E+000        
  0.000000000000000E+000                                                        
   69.3200000000000       0.145921000000000      -3.626100000000000E-002        
  0.000000000000000E+000  0.000000000000000E+000  0.000000000000000E+000        
  0.000000000000000E+000  0.000000000000000E+000  0.000000000000000E+000        
  0.000000000000000E+000                                                        
   26.9700000000000       0.305258000000000      -8.299200000000000E-002        
  0.000000000000000E+000  0.000000000000000E+000  0.000000000000000E+000        
  0.000000000000000E+000  0.000000000000000E+000  0.000000000000000E+000        
  0.000000000000000E+000                                                        
   11.1000000000000       0.398508000000000      -0.152090000000000             
  0.000000000000000E+000  0.000000000000000E+000  0.000000000000000E+000        
  0.000000000000000E+000  0.000000000000000E+000  0.000000000000000E+000        
  0.000000000000000E+000                                                        
   4.68200000000000       0.216980000000000      -0.115331000000000             
  0.000000000000000E+000  0.000000000000000E+000  0.000000000000000E+000        
  0.000000000000000E+000  0.000000000000000E+000  0.000000000000000E+000        
  0.000000000000000E+000                                                        
   1.42800000000000       1.759400000000000E-002  0.288979000000000             
   1.00000000000000       0.000000000000000E+000  0.000000000000000E+000        
  0.000000000000000E+000  0.000000000000000E+000  0.000000000000000E+000        
  0.000000000000000E+000                                                        
  0.554700000000000      -2.502000000000000E-003  0.586128000000000             
  0.000000000000000E+000   1.00000000000000       0.000000000000000E+000        
  0.000000000000000E+000  0.000000000000000E+000  0.000000000000000E+000        
  0.000000000000000E+000                                                        
  0.206700000000000       9.540000000000000E-004  0.277624000000000             
  0.000000000000000E+000  0.000000000000000E+000   1.00000000000000             
  0.000000000000000E+000  0.000000000000000E+000  0.000000000000000E+000        
  0.000000000000000E+000                                                        
   12.9740000000000       0.000000000000000E+000  0.000000000000000E+000        
  0.000000000000000E+000  0.000000000000000E+000  0.000000000000000E+000        
   1.00000000000000       0.000000000000000E+000  0.000000000000000E+000        
  0.000000000000000E+000                                                        
   34.9000000000000       0.000000000000000E+000  0.000000000000000E+000        
  0.000000000000000E+000  0.000000000000000E+000  0.000000000000000E+000        
  0.000000000000000E+000   1.00000000000000       0.000000000000000E+000        
  0.000000000000000E+000                                                        
   93.8810000000000       0.000000000000000E+000  0.000000000000000E+000        
  0.000000000000000E+000  0.000000000000000E+000  0.000000000000000E+000        
  0.000000000000000E+000  0.000000000000000E+000   1.00000000000000             
  0.000000000000000E+000                                                        
  6.959000000000000E-002  0.000000000000000E+000  0.000000000000000E+000        
  0.000000000000000E+000  0.000000000000000E+000  0.000000000000000E+000        
  0.000000000000000E+000  0.000000000000000E+000  0.000000000000000E+000        
   1.00000000000000                                                             
   10    8                                                                      
   63.4200000000000       6.044000000000000E-003  0.000000000000000E+000        
  0.000000000000000E+000  0.000000000000000E+000  0.000000000000000E+000        
  0.000000000000000E+000  0.000000000000000E+000  0.000000000000000E+000        
   14.6600000000000       4.179900000000000E-002  0.000000000000000E+000        
  0.000000000000000E+000  0.000000000000000E+000  0.000000000000000E+000        
  0.000000000000000E+000  0.000000000000000E+000  0.000000000000000E+000        
   4.45900000000000       0.161143000000000       0.000000000000000E+000        
  0.000000000000000E+000  0.000000000000000E+000  0.000000000000000E+000        
  0.000000000000000E+000  0.000000000000000E+000  0.000000000000000E+000        
   1.53100000000000       0.356731000000000        1.00000000000000             
  0.000000000000000E+000  0.000000000000000E+000  0.000000000000000E+000        
  0.000000000000000E+000  0.000000000000000E+000  0.000000000000000E+000        
  0.530200000000000       0.448309000000000       0.000000000000000E+000        
   1.00000000000000       0.000000000000000E+000  0.000000000000000E+000        
  0.000000000000000E+000  0.000000000000000E+000  0.000000000000000E+000        
  0.175000000000000       0.244940000000000       0.000000000000000E+000        
  0.000000000000000E+000   1.00000000000000       0.000000000000000E+000        
  0.000000000000000E+000  0.000000000000000E+000  0.000000000000000E+000        
   14.4750000000000       0.000000000000000E+000  0.000000000000000E+000        
  0.000000000000000E+000  0.000000000000000E+000   1.00000000000000             
  0.000000000000000E+000  0.000000000000000E+000  0.000000000000000E+000        
   42.7300000000000       0.000000000000000E+000  0.000000000000000E+000        
  0.000000000000000E+000  0.000000000000000E+000  0.000000000000000E+000        
   1.00000000000000       0.000000000000000E+000  0.000000000000000E+000        
   126.140000000000       0.000000000000000E+000  0.000000000000000E+000        
  0.000000000000000E+000  0.000000000000000E+000  0.000000000000000E+000        
  0.000000000000000E+000   1.00000000000000       0.000000000000000E+000        
  5.348000000000000E-002  0.000000000000000E+000  0.000000000000000E+000        
  0.000000000000000E+000  0.000000000000000E+000  0.000000000000000E+000        
  0.000000000000000E+000  0.000000000000000E+000   1.00000000000000             
    6    6                                                                      
   3.77500000000000        1.00000000000000       0.000000000000000E+000        
  0.000000000000000E+000  0.000000000000000E+000  0.000000000000000E+000        
  0.000000000000000E+000                                                        
   1.30000000000000       0.000000000000000E+000   1.00000000000000             
  0.000000000000000E+000  0.000000000000000E+000  0.000000000000000E+000        
  0.000000000000000E+000                                                        
  0.444000000000000       0.000000000000000E+000  0.000000000000000E+000        
   1.00000000000000       0.000000000000000E+000  0.000000000000000E+000        
  0.000000000000000E+000                                                        
   14.9270000000000       0.000000000000000E+000  0.000000000000000E+000        
  0.000000000000000E+000   1.00000000000000       0.000000000000000E+000        
  0.000000000000000E+000                                                        
   57.5440000000000       0.000000000000000E+000  0.000000000000000E+000        
  0.000000000000000E+000  0.000000000000000E+000   1.00000000000000             
  0.000000000000000E+000                                                        
  0.154000000000000       0.000000000000000E+000  0.000000000000000E+000        
  0.000000000000000E+000  0.000000000000000E+000  0.000000000000000E+000        
   1.00000000000000                                                             
    4    4                                                                      
   2.66600000000000        1.00000000000000       0.000000000000000E+000        
  0.000000000000000E+000  0.000000000000000E+000                                
  0.859000000000000       0.000000000000000E+000   1.00000000000000             
  0.000000000000000E+000  0.000000000000000E+000                                
   26.4830000000000       0.000000000000000E+000  0.000000000000000E+000        
   1.00000000000000       0.000000000000000E+000                                
  0.324000000000000       0.000000000000000E+000  0.000000000000000E+000        
  0.000000000000000E+000   1.00000000000000                                     
    2    2                                                                      
   1.84600000000000        1.00000000000000       0.000000000000000E+000        
  0.714000000000000       0.000000000000000E+000   1.00000000000000             
FINISH                                                                          
 
********************************************************************************
 ONE- AND TWO-ELECTRON INTEGRALS OVER SYMMETRY-ADAPTED AOS ARE CALCULATED.

  SPHERICAL HARMONICS ARE USED.
  
  INTEGRALS LESS THAN  0.10E-13 ARE NEGLECTED.

  NUCLEAR REPULSION ENERGY :   19.0339670078 A.U.
  @MOLECU-I, ONE ELECTRON INTEGRALS (CPU/WALL):        0.06/       0.09 SECONDS.
  @TWOEL-I,    4515274 INTEGRALS OF SYMMETRY TYPE  I I I I
  @TWOEL-I,   19440900 INTEGRALS OF SYMMETRY TYPE  I J I J
  @TWOEL-I,   10240125 INTEGRALS OF SYMMETRY TYPE  I I J J
  @TWOEL-I,   14394662 INTEGRALS OF SYMMETRY TYPE  I J K L
  @TWOEL-I, TOTAL NUMBER OF 2-E INTEGRALS   48590961.
  @MOLECU-I, TWO ELECTRON INTEGRALS (CPU/WALL):      283.56/      36.15 SECONDS.
 @CHECKOUT-I, Total execution time (CPU/WALL):      283.63/      36.28 seconds.

Running with 14 threads/proc

--executable xvmol finished with status     0 in       36.31 seconds (walltime).
 --invoking executable--
/nfs/workspaces/public/cfour_mpi/bin/xvmol2ja
 @GETMEM-I,  Allocated    3814 MB of main memory.
 @CHECKOUT-I, Total execution time (CPU/WALL):        0.28/       0.80 seconds.
--executable xvmol2ja finished with status     0 in        2.77 seconds (walltime).
 --invoking executable--
/nfs/workspaces/public/cfour_mpi/bin/xvprop
 @GETMEM-I,  Allocated    3814 MB of main memory.
   Property integrals will be calculated.
    --------------------------------------------------------------
                                   Property evaluated at 
    Property type                X             Y             Z
    --------------------------------------------------------------
    Dipole moment               ----          ----          ----  
    Quadrupole moment           ----          ----          ----  
    Octopole moment             ----          ----          ----  
    Relativisitic corr.         ----          ----          ----  
    Second moment            0.0000000     0.0000000     0.0000000
    Electron density         0.0000000     0.0000000     1.5130562
    Electron density         0.0000000     0.0000000    -1.0087512
    Field gradient           0.0000000     0.0000000     1.5130562
    Field gradient           0.0000000     0.0000000    -1.0087512
    Potential                0.0000000     0.0000000     1.5130562
    Potential                0.0000000     0.0000000    -1.0087512
    --------------------------------------------------------------
 @CHECKOUT-I, Total execution time (CPU/WALL):        1.31/       1.35 seconds.
--executable xvprop finished with status     0 in        1.38 seconds (walltime).
 --invoking executable--
/nfs/workspaces/public/cfour_mpi/bin/xvscf
  There are  218 functions in the AO basis.

  There are 4 irreducible representations.

       Irrep        # of functions
         1                 86
         2                 52
         3                 52
         4                 28


  Parameters for SCF calculation: 
        SCF reference function:  RHF  
  Maximum number of iterations:  150
     Full symmetry point group: CXv 
     Computational point group: C2v 
        Initial density matrix: MOREAD                 
     SCF convergence tolerance: 10**(-10)
  DIIS convergence acceleration:  ON
          Latest start for DIIS:   8
                     DIIS order:   6

  Memory information:    2523578 words required.
  Fock matrices are constructed from AO integral file.
 @GETMEM-I,  Allocated      19 MB of main memory.
  Initialization and symmetry analysis required      0.001 seconds.

  Adding electric field perturbation to one-electron Hamiltonian.
  Field direction     : Z
  Field strength      : -0.0002000 a.u.

  @INITGES-I, Occupancies from core Hamiltonian:

          Alpha population by irrep:   5    1    1    0
           Beta population by irrep:   5    1    1    0


 total no. of electrons in initial guess :  0.000000000000000E+000
  --------------------------------------------------------------------
  Iteration         Total Energy            Largest Density Difference
  --------------------------------------------------------------------
       0            19.034168673290406              0.0000000000D+00
   current occupation vector 
     5  1  1  0
     5  1  1  0
       1           -92.943432181663681              0.1780491173D+02
   current occupation vector 
     5  1  1  0
     5  1  1  0
       2           -98.360753553875170              0.1780152376D+02
   current occupation vector 
     5  1  1  0
     5  1  1  0
       3          -103.467740248609942              0.6975562006D+01
   current occupation vector 
     5  1  1  0
     5  1  1  0
       4           -99.113508195537122              0.6960016414D+01
   current occupation vector 
     5  1  1  0
     5  1  1  0
       5          -101.673960432829503              0.6228861891D+01
   current occupation vector 
     5  1  1  0
     5  1  1  0
       6           -97.764547511206729              0.6207552029D+01
   current occupation vector 
     5  1  1  0
     5  1  1  0
       7          -101.677134211645011              0.6373238524D+01
   current occupation vector 
     5  1  1  0
     5  1  1  0
       8           -97.671808270084156              0.6372420988D+01
   current occupation vector 
     5  1  1  0
     5  1  1  0
       9          -108.765358602241122              0.4810863718D+01
   current occupation vector 
     5  1  1  0
     5  1  1  0
      10          -110.824793103537147              0.1107564121D+01
   current occupation vector 
     5  1  1  0
     5  1  1  0
      11          -112.527216986069348              0.1051654034D+01
   current occupation vector 
     5  1  1  0
     5  1  1  0
      12          -112.698232276399509              0.4260880715D+00
   current occupation vector 
     5  1  1  0
     5  1  1  0
      13          -112.700046474737334              0.5567659319D-01
   current occupation vector 
     5  1  1  0
     5  1  1  0
      14          -112.700311181875563              0.1986217737D-01
   current occupation vector 
     5  1  1  0
     5  1  1  0
      15          -112.700340859127508              0.8503871946D-02
   current occupation vector 
     5  1  1  0
     5  1  1  0
      16          -112.700341399614658              0.1004000207D-02
   current occupation vector 
     5  1  1  0
     5  1  1  0
      17          -112.700341450910301              0.4613372926D-03
   current occupation vector 
     5  1  1  0
     5  1  1  0
      18          -112.700341455905729              0.1583165267D-03
   current occupation vector 
     5  1  1  0
     5  1  1  0
      19          -112.700341456025441              0.2376941832D-04
   current occupation vector 
     5  1  1  0
     5  1  1  0
      20          -112.700341456026237              0.1589747984D-05
   current occupation vector 
     5  1  1  0
     5  1  1  0
      21          -112.700341456026919              0.7964071953D-06
   current occupation vector 
     5  1  1  0
     5  1  1  0
      22          -112.700341456027004              0.1545932407D-06
   current occupation vector 
     5  1  1  0
     5  1  1  0
      23          -112.700341456026578              0.3471683452D-07
   current occupation vector 
     5  1  1  0
     5  1  1  0
      24          -112.700341456025782              0.2780913499D-08
   current occupation vector 
     5  1  1  0
     5  1  1  0
      25          -112.700341456026493              0.3757936184D-09
   current occupation vector 
     5  1  1  0
     5  1  1  0
      26          -112.700341456026692              0.2015387857D-09
   current occupation vector 
     5  1  1  0
     5  1  1  0
      27          -112.700341456027317              0.1995601462D-09
   current occupation vector 
     5  1  1  0
     5  1  1  0
      28          -112.700341456026436              0.1043271997D-09
   current occupation vector 
     5  1  1  0
     5  1  1  0
      29          -112.700341456027175              0.1505247177D-09
   current occupation vector 
     5  1  1  0
     5  1  1  0
      30          -112.700341456027147              0.1760038781D-09
   current occupation vector 
     5  1  1  0
     5  1  1  0
      31          -112.700341456027317              0.1799487226D-09
   current occupation vector 
     5  1  1  0
     5  1  1  0

  SCF has converged.

 Density matrix saved to file den.dat
 total electron number:   14.0000000000001     
     E(SCF)=      -112.700341456026948              0.2067279681D-10

  Eigenvector printing suppressed.

 @PUTMOS-I, Writing converged MOs to NEWMOS. 
 @PUTMOS-I, Symmetry   1 Full Blocks 21 Partial Blocksize   2
 @PUTMOS-I, Symmetry   2 Full Blocks 13 Partial Blocksize   0
 @PUTMOS-I, Symmetry   3 Full Blocks 13 Partial Blocksize   0
 @PUTMOS-I, Symmetry   4 Full Blocks  7 Partial Blocksize   0
 @PUTFOCK-I, Writing converged Fock matrix to NEWFOCK. 
 @PUTFOCK-I, Symmetry   1 Full Blocks 21 Partial Blocksize   2
 @PUTFOCK-I, Symmetry   2 Full Blocks 13 Partial Blocksize   0
 @PUTFOCK-I, Symmetry   3 Full Blocks 13 Partial Blocksize   0
 @PUTFOCK-I, Symmetry   4 Full Blocks  7 Partial Blocksize   0


 
  ORBITAL EIGENVALUES (ALPHA)  (1H = 27.2113834 eV)

       MO #        E(hartree)               E(eV)           FULLSYM    COMPSYM
       ----   --------------------   --------------------   -------   ---------
    1     1         -20.6645391291        -562.3106970274     SG+        A1 (1)
    2     2         -11.4460975801        -311.4641496859     SG+        A1 (1)
    3     3          -1.3935155218         -37.9194851383     SG+        A1 (1)
    4     4          -0.7931277247         -21.5821026013     SG+        A1 (1)
    5     5          -0.5654840296         -15.3876027348     SG+        A1 (1)
    6    87          -0.5635012702         -15.3336491101      PI        B1 (2)
    7   139          -0.5635012702         -15.3336491101      PI        B2 (3)
  +++++++++++++++++++++++++++++++++++++++++++++++++++++++++++++++++++++++++++++
    8   140           0.0442769588           1.2048373004      PI        B2 (3)
    9    88           0.0442769588           1.2048373004      PI        B1 (2)
   10     6           0.0633675512           1.7243187314     SG+        A1 (1)
   11     7           0.0694544518           1.8899517165     SG+        A1 (1)
   12    89           0.0964613239           2.6248460681      PI        B1 (2)
   13   141           0.0964613239           2.6248460681      PI        B2 (3)
   14     8           0.1571783620           4.2770406716     SG+        A1 (1)
   15    90           0.1705185619           4.6400459647      PI        B1 (2)
   16   142           0.1705185619           4.6400459647      PI        B2 (3)
   17   191           0.2259846327           6.1493544816      DE        A2 (4)
   18     9           0.2259846327           6.1493544816      DE        A1 (1)
   19    10           0.2271542268           6.1811807577     SG+        A1 (1)
   20    11           0.2993908049           8.1468379796     SG+        A1 (1)
   21    91           0.3015674992           8.2060688416      PI        B1 (2)
   22   143           0.3015674992           8.2060688416      PI        B2 (3)
   23    12           0.3775876755          10.2746830047     SG+        A1 (1)
   24    92           0.3970433801          10.8040996418      PI        B1 (2)
   25   144           0.3970433801          10.8040996418      PI        B2 (3)
   26    13           0.5097367398          13.8706418609     SG+        A1 (1)
   27    14           0.5367063273          14.6045216445     SG+        A1 (1)
   28   192           0.5448203413          14.8253151902      DE        A2 (4)
   29    15           0.5448203413          14.8253151902      DE        A1 (1)
   30   145           0.6259507641          17.0329862312      PI        B2 (3)
   31    93           0.6259507641          17.0329862312      PI        B1 (2)
   32   146           0.7425703558          20.2063666529      PH        B2 (3)
   33    94           0.7425703558          20.2063666529      PH        B1 (2)
   34    16           0.7519621553          20.4619305097     SG+        A1 (1)
   35   193           0.7566860932          20.5904753961      DE        A2 (4)
   36    17           0.7566860932          20.5904753961      DE        A1 (1)
   37    95           0.7992166664          21.7477911281      PI        B1 (2)
   38   147           0.7992166664          21.7477911281      PI        B2 (3)
   39    18           0.8260112553          22.4769089608     SG+        A1 (1)
   40    19           0.8680919861          23.6219838599     SG+        A1 (1)
   41    20           0.8785013871          23.9052380624      DE        A1 (1)
   42   194           0.8785013871          23.9052380624      DE        A2 (4)
   43   148           0.8959431225          24.3798518096      PI        B2 (3)
   44    96           0.8959431225          24.3798518096      PI        B1 (2)
   45    97           1.0395404496          28.2873337347      PI        B1 (2)
   46   149           1.0395404496          28.2873337347      PI        B2 (3)
   47    21           1.1243229586          30.5943830932     SG+        A1 (1)
   48    22           1.4146259757          38.4939297917     SG+        A1 (1)
   49    98           1.4330309485          38.9947545644      PH        B1 (2)
   50   150           1.4330309485          38.9947545644      PH        B2 (3)
   51    23           1.5524012291          42.2429850368      DE        A1 (1)
   52   195           1.5524012291          42.2429850368      DE        A2 (4)
   53   151           1.5677589811          42.6608907125      PI        B2 (3)
   54    99           1.5677589811          42.6608907125      PI        B1 (2)
   55    24           1.6472466941          44.8238613485     SG+        A1 (1)
   56   100           1.6699381060          45.4413260575      PI        B1 (2)
   57   152           1.6699381060          45.4413260575      PI        B2 (3)
   58    25           1.7321696580          47.1347326778      DE        A1 (1)
   59   196           1.7321696580          47.1347326778      DE        A2 (4)
   60    26           1.8529493963          50.4213164432     SG+        A1 (1)
   61    27           2.0314709890          55.2791359478     SG+        A1 (1)
   62   101           2.0642143223          56.1701273449      PI        B1 (2)
   63   153           2.0642143223          56.1701273449      PI        B2 (3)
   64   197           2.0898762742          56.8684245555      PI        A2 (4)
   65    28           2.0898762742          56.8684245555      PI        A1 (1)
   66    29           2.1595531316          58.7644282354      DE        A1 (1)
   67   198           2.1595531316          58.7644282354      DE        A2 (4)
   68   102           2.2324392716          60.7477609373      PH        B1 (2)
   69   154           2.2324392716          60.7477609373      PH        B2 (3)
   70   155           2.2794333779          62.0265355821      PI        B2 (3)
   71   103           2.2794333779          62.0265355821      PI        B1 (2)
   72    30           2.2882913625          62.2675735964     SG+        A1 (1)
   73   156           2.2898296540          62.3094326358      PH        B2 (3)
   74   104           2.2898296540          62.3094326358      PH        B1 (2)
   75   199           2.3282514271          63.3549422356      DE        A2 (4)
   76    31           2.3282514271          63.3549422356      DE        A1 (1)
   77    32           2.4975876342          67.9628146888     SG+        A1 (1)
   78   157           2.5395008142          69.1033302985      PI        B2 (3)
   79   105           2.5395008142          69.1033302985      PI        B1 (2)
   80    33           2.6703518920          72.6639691465     SG+        A1 (1)
   81   106           2.6820688988          72.9828051106      PI        B1 (2)
   82   158           2.6820688988          72.9828051106      PI        B2 (3)
   83   200           2.8337918010          77.1113951735      DE        A2 (4)
   84    34           2.8337918010          77.1113951735      DE        A1 (1)
   85    35           3.3544538869          91.2793308134     SG+        A1 (1)
   86   159           3.6271950718          98.7009957659      PI        B2 (3)
   87   107           3.6271950718          98.7009957659      PI        B1 (2)
   88   201           3.7022596868         100.7436077828      PI        A2 (4)
   89    36           3.7022596868         100.7436077828      PI        A1 (1)
   90    37           3.8984563214         106.0823896293     SG+        A1 (1)
   91   160           4.0606182502         110.4950400464      PH        B2 (3)
   92   108           4.0606182502         110.4950400464      PH        B1 (2)
   93   161           4.1297565001         112.3763874724      PH        B2 (3)
   94   109           4.1297565001         112.3763874724      PH        B1 (2)
   95   110           4.1781794168         113.6940420235      PI        B1 (2)
   96   162           4.1781794168         113.6940420235      PI        B2 (3)
   97    38           4.2112222020         114.5931819211      DE        A1 (1)
   98   202           4.2112222020         114.5931819211      DE        A2 (4)
   99    39           4.2167933859         114.7447815416     SG+        A1 (1)
  100    40           4.2973087644         116.9357163762      DE        A1 (1)
  101   203           4.2973087644         116.9357163763      DE        A2 (4)
  102    41           4.3828092282         119.2623022769     SG+        A1 (1)
  103   163           4.8075337920         130.8196452229      PI        B2 (3)
  104   111           4.8075337920         130.8196452229      PI        B1 (2)
  105   204           4.9590537051         134.9427116712      DE        A2 (4)
  106    42           4.9590537051         134.9427116713      DE        A1 (1)
  107   164           4.9861696427         135.6805738443      PI        B2 (3)
  108   112           4.9861696427         135.6805738443      PI        B1 (2)
  109    43           5.0881161594         138.4546795959     SG+        A1 (1)
  110    44           5.3531141760         145.6656422264     SG+        A1 (1)
  111   113           5.5633634903         151.3868169270      PI        B1 (2)
  112   165           5.5633634903         151.3868169270      PI        B2 (3)
  113   205           5.8686067824         159.6929091799      PI        A2 (4)
  114    45           5.8686067824         159.6929091799      PI        A1 (1)
  115   166           5.9832089999         162.8113940588      PH        B2 (3)
  116   114           5.9832089999         162.8113940588      PH        B1 (2)
  117    46           6.2056980197         168.8656280800     SG+        A1 (1)
  118    47           6.2202799029         169.2624212931      DE        A1 (1)
  119   206           6.2202799029         169.2624212931      DE        A2 (4)
  120   167           6.2507397107         170.0912748022      PI        B2 (3)
  121   115           6.2507397107         170.0912748022      PI        B1 (2)
  122   116           6.4047818156         174.2829735772      PH        B1 (2)
  123   168           6.4047818156         174.2829735772      PH        B2 (3)
  124    48           6.4596792688         175.7768092232     SG+        A1 (1)
  125   207           6.5351114589         177.8294234691      DE        A2 (4)
  126    49           6.5351114589         177.8294234692      DE        A1 (1)
  127   208           6.7074853772         182.5199562486      DE        A2 (4)
  128    50           6.7074853772         182.5199562487      DE        A1 (1)
  129   169           7.0810359838         192.6847850238      PI        B2 (3)
  130   117           7.0810359838         192.6847850238      PI        B1 (2)
  131    51           7.4001374030         201.3679760861     SG+        A1 (1)
  132   170           7.8686689696         214.1173681803      PI        B2 (3)
  133   118           7.8686689696         214.1173681804      PI        B1 (2)
  134    52           8.2776353618         225.2459094766     SG+        A1 (1)
  135    53           9.9582296219         270.9772042265     SG+        A1 (1)
  136   171          10.0402555307         273.2092426790      PI        B2 (3)
  137   119          10.0402555307         273.2092426792      PI        B1 (2)
  138   209          10.6190716133         288.9596290226      PI        A2 (4)
  139    54          10.6190716133         288.9596290226      PI        A1 (1)
  140   172          10.7855115735         293.4886905909      PH        B2 (3)
  141   120          10.7855115735         293.4886905909      PH        B1 (2)
  142    55          10.8321419025         294.7575663508     SG+        A1 (1)
  143   210          11.0190934394         299.8447763011      DE        A2 (4)
  144    56          11.0190934394         299.8447763011      DE        A1 (1)
  145   173          11.1498237134         303.4021279065      PI        B2 (3)
  146   121          11.1498237134         303.4021279065      PI        B1 (2)
  147    57          11.4714235651         312.1533047731     SG+        A1 (1)
  148   174          11.8631774252         322.8134692582      PH        B2 (3)
  149   122          11.8631774252         322.8134692582      PH        B1 (2)
  150    58          12.1062358643         329.4274256334      DE        A1 (1)
  151   211          12.1062358643         329.4274256340      DE        A2 (4)
  152   175          12.6013846397         342.9011088013      PI        B2 (3)
  153   123          12.6013846397         342.9011088014      PI        B1 (2)
  154    59          12.7796460995         347.7518497289      DE        A1 (1)
  155   212          12.7796460995         347.7518497289      DE        A2 (4)
  156    60          12.9612264406         352.6929020105     SG+        A1 (1)
  157   176          13.2607145760         360.8423884850      PI        B2 (3)
  158   124          13.2607145760         360.8423884850      PI        B1 (2)
  159    61          14.2632531553         388.1228501390     SG+        A1 (1)
  160    62          17.6360371787         479.9009693275     SG+        A1 (1)
  161   125          18.9981419095         516.9657233861      PI        B1 (2)
  162   177          18.9981419095         516.9657233863      PI        B2 (3)
  163    63          20.4529545311         556.5531874098     SG+        A1 (1)
  164    64          26.3699277906         717.5622153412      DE        A1 (1)
  165   213          26.3699277906         717.5622153413      DE        A2 (4)
  166   178          26.7970895026         729.1858764599      PI        B2 (3)
  167   126          26.7970895026         729.1858764599      PI        B1 (2)
  168    65          27.3995379062         745.5793309481     SG+        A1 (1)
  169   179          33.6871150003         916.6730019119      PI        B2 (3)
  170   127          33.6871150003         916.6730019124      PI        B1 (2)
  171    66          34.4791235916         938.2246513464     SG+        A1 (1)
  172    67          36.1790141273         984.4810244523     SG+        A1 (1)
  173    68          47.0851175549        1281.2511862207      DE        A1 (1)
  174   214          47.0851175549        1281.2511862207      DE        A2 (4)
  175   180          47.3157812254        1287.5278637958      PI        B2 (3)
  176   128          47.3157812254        1287.5278637958      PI        B1 (2)
  177    69          47.9546086195        1304.9112409420     SG+        A1 (1)
  178    70          63.9694592754        1740.6974822331     SG+        A1 (1)
  179   129          66.5236581633        1810.2007674515      PI        B1 (2)
  180   181          66.5236581633        1810.2007674516      PI        B2 (3)
  181    71          67.5803028320        1838.9535306490     SG+        A1 (1)
  182   130          98.5860249881        2682.6621238325      PH        B1 (2)
  183   182          98.5860249881        2682.6621238325      PH        B2 (3)
  184    72          98.6002386465        2683.0488971403      DE        A1 (1)
  185   215          98.6002386465        2683.0488971403      DE        A2 (4)
  186   131          98.6283127471        2683.8128322554      PI        B1 (2)
  187   183          98.6283127471        2683.8128322554      PI        B2 (3)
  188    73          98.6504548040        2684.4153482564     SG+        A1 (1)
  189   132         103.2861862374        2810.5600136291      PH        B1 (2)
  190   184         103.2861862374        2810.5600136291      PH        B2 (3)
  191   216         103.3094665098        2811.1935020470      DE        A2 (4)
  192    74         103.3094665099        2811.1935020491      DE        A1 (1)
  193   133         103.3527623484        2812.3716417127      PI        B1 (2)
  194   185         103.3527623485        2812.3716417128      PI        B2 (3)
  195    75         103.3620780589        2812.6251350805     SG+        A1 (1)
  196    76         115.0561188942        3130.8361637459      DE        A1 (1)
  197   217         115.0561188942        3130.8361637460      DE        A2 (4)
  198   134         115.2620162293        3136.4389150716      PI        B1 (2)
  199   186         115.2620162293        3136.4389150716      PI        B2 (3)
  200    77         115.5711416184        3144.8506445552     SG+        A1 (1)
  201   187         116.9525619752        3182.4410035181      PI        B2 (3)
  202   135         116.9525619752        3182.4410035182      PI        B1 (2)
  203    78         117.5948934441        3199.9197313890     SG+        A1 (1)
  204    79         122.3679594303        3329.8014599329     SG+        A1 (1)
  205   218         198.5549035944        5402.9536076584      DE        A2 (4)
  206    80         198.5549035944        5402.9536076584      DE        A1 (1)
  207   188         198.6781807720        5406.3081502020      PI        B2 (3)
  208   136         198.6781807720        5406.3081502023      PI        B1 (2)
  209    81         199.0118568845        5415.3879388306     SG+        A1 (1)
  210    82         216.4907309466        5891.0122823354     SG+        A1 (1)
  211   137         224.9750631201        6121.8826980000      PI        B1 (2)
  212   189         224.9750631201        6121.8826980001      PI        B2 (3)
  213    83         225.8064757155        6144.5065848982     SG+        A1 (1)
  214   138         395.4200827585       10759.9274760001      PI        B1 (2)
  215   190         395.4200827585       10759.9274760003      PI        B2 (3)
  216    84         395.9577825279       10774.5590305798     SG+        A1 (1)
  217    85         508.9779621949       13849.9944714363     SG+        A1 (1)
  218    86         895.3246119448       24363.0212830859     SG+        A1 (1)


  VSCF finished.

 @CHECKOUT-I, Total execution time (CPU/WALL):       56.85/      12.80 seconds.
--executable xvscf finished with status     0 in       12.83 seconds (walltime).
 --invoking executable--
/nfs/workspaces/public/cfour_mpi/bin/xvtran
 @GETMEM-I,  Allocated    3814 MB of main memory.
  Full RHF integral transformation
  Transformation of IIII integrals :
  1 pass through the AO integral file was required.
     4515274 AO integrals were read.
     8778106 MO integrals were written to HF2.
  Transformation of IIJJ integrals :
  1 pass through the AO integral file was required.
    10240125 AO integrals were read.
    14560544 MO integrals were written to HF2.
  Transformation of IJIJ integrals :
  1 pass through the AO integral file was required.
    19440900 AO integrals were read.
    27311056 MO integrals were written to HF2.
  Transformation of IJKL integrals :
  1 pass through the AO integral file was required.
    14394662 AO integrals were read.
    18446055 MO integrals were written to HF2.
  Summary of active molecular orbitals: 
------------------------------------------------------------------------
 
  Index      Eigenvalue    Symmetry    Index      Eigenvalue    Symmetry
------------------------------------------------------------------------
     1       -20.6645391        1       110         4.1297565        2
     2       -11.4460976        1       111         4.1781794        2
     3        -1.3935155        1       112         4.8075338        2
     4        -0.7931277        1       113         4.9861696        2
     5        -0.5654840        1       114         5.5633635        2
     6        -0.5635013        2       115         5.9832090        2
     7        -0.5635013        3       116         6.2507397        2
     8         0.0633676        1       117         6.4047818        2
     9         0.0694545        1       118         7.0810360        2
    10         0.1571784        1       119         7.8686690        2
    11         0.2259846        1       120        10.0402555        2
    12         0.2271542        1       121        10.7855116        2
    13         0.2993908        1       122        11.1498237        2
    14         0.3775877        1       123        11.8631774        2
    15         0.5097367        1       124        12.6013846        2
    16         0.5367063        1       125        13.2607146        2
    17         0.5448203        1       126        18.9981419        2
    18         0.7519622        1       127        26.7970895        2
    19         0.7566861        1       128        33.6871150        2
    20         0.8260113        1       129        47.3157812        2
    21         0.8680920        1       130        66.5236582        2
    22         0.8785014        1       131        98.5860250        2
    23         1.1243230        1       132        98.6283127        2
    24         1.4146260        1       133       103.2861862        2
    25         1.5524012        1       134       103.3527623        2
    26         1.6472467        1       135       115.2620162        2
    27         1.7321697        1       136       116.9525620        2
    28         1.8529494        1       137       198.6781808        2
    29         2.0314710        1       138       224.9750631        2
    30         2.0898763        1       139       395.4200828        2
    31         2.1595531        1       140         0.0442770        3
    32         2.2882914        1       141         0.0964613        3
    33         2.3282514        1       142         0.1705186        3
    34         2.4975876        1       143         0.3015675        3
    35         2.6703519        1       144         0.3970434        3
    36         2.8337918        1       145         0.6259508        3
    37         3.3544539        1       146         0.7425704        3
    38         3.7022597        1       147         0.7992167        3
    39         3.8984563        1       148         0.8959431        3
    40         4.2112222        1       149         1.0395404        3
    41         4.2167934        1       150         1.4330309        3
    42         4.2973088        1       151         1.5677590        3
    43         4.3828092        1       152         1.6699381        3
    44         4.9590537        1       153         2.0642143        3
    45         5.0881162        1       154         2.2324393        3
    46         5.3531142        1       155         2.2794334        3
    47         5.8686068        1       156         2.2898297        3
    48         6.2056980        1       157         2.5395008        3
    49         6.2202799        1       158         2.6820689        3
    50         6.4596793        1       159         3.6271951        3
    51         6.5351115        1       160         4.0606183        3
    52         6.7074854        1       161         4.1297565        3
    53         7.4001374        1       162         4.1781794        3
    54         8.2776354        1       163         4.8075338        3
    55         9.9582296        1       164         4.9861696        3
    56        10.6190716        1       165         5.5633635        3
    57        10.8321419        1       166         5.9832090        3
    58        11.0190934        1       167         6.2507397        3
    59        11.4714236        1       168         6.4047818        3
    60        12.1062359        1       169         7.0810360        3
    61        12.7796461        1       170         7.8686690        3
    62        12.9612264        1       171        10.0402555        3
    63        14.2632532        1       172        10.7855116        3
    64        17.6360372        1       173        11.1498237        3
    65        20.4529545        1       174        11.8631774        3
    66        26.3699278        1       175        12.6013846        3
    67        27.3995379        1       176        13.2607146        3
    68        34.4791236        1       177        18.9981419        3
    69        36.1790141        1       178        26.7970895        3
    70        47.0851176        1       179        33.6871150        3
    71        47.9546086        1       180        47.3157812        3
    72        63.9694593        1       181        66.5236582        3
    73        67.5803028        1       182        98.5860250        3
    74        98.6002386        1       183        98.6283127        3
    75        98.6504548        1       184       103.2861862        3
    76       103.3094665        1       185       103.3527623        3
    77       103.3620781        1       186       115.2620162        3
    78       115.0561189        1       187       116.9525620        3
    79       115.5711416        1       188       198.6781808        3
    80       117.5948934        1       189       224.9750631        3
    81       122.3679594        1       190       395.4200828        3
    82       198.5549036        1       191         0.2259846        4
    83       199.0118569        1       192         0.5448203        4
    84       216.4907309        1       193         0.7566861        4
    85       225.8064757        1       194         0.8785014        4
    86       395.9577825        1       195         1.5524012        4
    87       508.9779622        1       196         1.7321697        4
    88       895.3246119        1       197         2.0898763        4
    89         0.0442770        2       198         2.1595531        4
    90         0.0964613        2       199         2.3282514        4
    91         0.1705186        2       200         2.8337918        4
    92         0.3015675        2       201         3.7022597        4
    93         0.3970434        2       202         4.2112222        4
    94         0.6259508        2       203         4.2973088        4
    95         0.7425704        2       204         4.9590537        4
    96         0.7992167        2       205         5.8686068        4
    97         0.8959431        2       206         6.2202799        4
    98         1.0395404        2       207         6.5351115        4
    99         1.4330309        2       208         6.7074854        4
   100         1.5677590        2       209        10.6190716        4
   101         1.6699381        2       210        11.0190934        4
   102         2.0642143        2       211        12.1062359        4
   103         2.2324393        2       212        12.7796461        4
   104         2.2794334        2       213        26.3699278        4
   105         2.2898297        2       214        47.0851176        4
   106         2.5395008        2       215        98.6002386        4
   107         2.6820689        2       216       103.3094665        4
   108         3.6271951        2       217       115.0561189        4
   109         4.0606183        2       218       198.5549036        4
------------------------------------------------------------------------
  -20.6645391291419       -11.4460975801004       -1.39351552182742     
 -0.793127724675640      -0.565484029555415      -0.563501270211376     
 -0.563501270211372       6.336755122134129E-002  6.945445179155540E-002
  0.157178362037189       0.225984632652214       0.227154226849327     
  0.299390804936714       0.377587675485457       0.509736739842782     
  0.536706327268259       0.544820341262572       0.751962155281357     
  0.756686093219996       0.826011255304140       0.868091986087656     
  0.878501387121778        1.12432295864723        1.41462597567395     
   1.55240122914267        1.64724669413486        1.73216965800453     
   1.85294939628905        2.03147098900559        2.08987627418751     
   2.15955313155608        2.28829136251805        2.32825142714221     
   2.49758763418208        2.67035189201477        2.83379180102706     
   3.35445388687734        3.70225968675961        3.89845632138272     
   4.21122220199642        4.21679338587367        4.29730876439901     
[...]
 Convergence information after    12 iterations: 
 Largest element of residual vector : -0.23938813E-05.
 Largest element of DIIS residual   : -0.12548188E-05.
 Convergence information after    13 iterations: 
 Largest element of residual vector : -0.96912856E-06.
 Largest element of DIIS residual   : -0.38556757E-06.
 Convergence information after    14 iterations: 
 Largest element of residual vector : -0.49260179E-06.
 Largest element of DIIS residual   : -0.24481117E-06.
 Convergence information after    15 iterations: 
 Largest element of residual vector : -0.16575934E-06.
 Largest element of DIIS residual   : -0.10126244E-06.
 Convergence information after    16 iterations: 
 Largest element of residual vector : -0.98037464E-07.
 Largest element of DIIS residual   : -0.44477429E-07.
 Perturbed amplitude equations converged in    16 iterations.
  Dominant contributions to perturbed wavefunction:
    7    7  140   28  -0.2308752322 ABAB
    7    7   28  140  -0.2308752322 ABAB
    7    7  140   39  -0.1963297905 ABAB
    7    7   39  140  -0.1963297905 ABAB
    7    7  141   28  -0.1797425709 ABAB
    7    7   28  141  -0.1797425709 ABAB
    7    7  141   39  -0.1581258746 ABAB
    7    7   39  141  -0.1581258746 ABAB
    7    7  140   54  -0.1557136740 ABAB
    7    7   54  140  -0.1557136740 ABAB
    7    6   28   89  -0.1485719926 ABAB
    6    7   89   28  -0.1485719926 ABAB
    7    7  140   20  -0.1392305303 ABAB
    7    7   20  140  -0.1392305303 ABAB
    7    7  140   45   0.1301124131 ABAB
    7    7   45  140   0.1301124131 ABAB
    7    6   39   89  -0.1267020855 ABAB
    6    7   89   39  -0.1267020855 ABAB
    7    7  141   54  -0.1263758758 ABAB
    7    7   54  141  -0.1263758758 ABAB
  norm of converged amps    2.00576148553300     
 Starting iterative solution of the perturbed Lambda equations.
 The DIIS procedure is used to accelerate convergence.
 Convergence criterion is 10**(-7).
 Maximum number of iterations is 100.
 Convergence information after     1 iterations: 
 Largest element of residual vector :  0.62084330E-01.
 Largest element of DIIS residual   :  0.62084330E-01.
 Convergence information after     2 iterations: 
 Largest element of residual vector : -0.11955069E-01.
 Largest element of DIIS residual   :  0.77259082E-02.
 Convergence information after     3 iterations: 
 Largest element of residual vector :  0.48345980E-02.
 Largest element of DIIS residual   :  0.43404534E-02.
 Convergence information after     4 iterations: 
 Largest element of residual vector :  0.31042019E-02.
 Largest element of DIIS residual   :  0.26844179E-02.
 Convergence information after     5 iterations: 
 Largest element of residual vector :  0.21484128E-02.
 Largest element of DIIS residual   :  0.12047544E-02.
 Convergence information after     6 iterations: 
 Largest element of residual vector :  0.83763339E-03.
 Largest element of DIIS residual   :  0.32541199E-03.
 Convergence information after     7 iterations: 
 Largest element of residual vector :  0.30000281E-03.
 Largest element of DIIS residual   :  0.13907380E-03.
 Convergence information after     8 iterations: 
 Largest element of residual vector :  0.89020525E-04.
 Largest element of DIIS residual   :  0.56509339E-04.
 Convergence information after     9 iterations: 
 Largest element of residual vector :  0.34667596E-04.
 Largest element of DIIS residual   : -0.93907803E-05.
 Convergence information after    10 iterations: 
 Largest element of residual vector : -0.67423460E-05.
 Largest element of DIIS residual   : -0.53308155E-05.
 Convergence information after    11 iterations: 
 Largest element of residual vector : -0.30709165E-05.
 Largest element of DIIS residual   : -0.17318707E-05.
 Convergence information after    12 iterations: 
 Largest element of residual vector : -0.18151177E-05.
 Largest element of DIIS residual   : -0.13658313E-05.
 Convergence information after    13 iterations: 
 Largest element of residual vector : -0.10058761E-05.
 Largest element of DIIS residual   : -0.69069984E-06.
 Convergence information after    14 iterations: 
 Largest element of residual vector : -0.67493648E-06.
 Largest element of DIIS residual   : -0.44743505E-06.
 Convergence information after    15 iterations: 
 Largest element of residual vector : -0.30843792E-06.
 Largest element of DIIS residual   : -0.18641791E-06.
 Convergence information after    16 iterations: 
 Largest element of residual vector : -0.16592038E-06.
 Largest element of DIIS residual   : -0.64802799E-07.
 Perturbed Lambda equations converged in    16 iterations.
  Dominant contributions to perturbed wavefunction:
    7    7  140   28  -0.2114578399 ABAB
    7    7   28  140  -0.2114578399 ABAB
    7    7  140   39  -0.1778990900 ABAB
    7    7   39  140  -0.1778990900 ABAB
    7    7  141   28  -0.1633371494 ABAB
    7    7   28  141  -0.1633371494 ABAB
    7    7  140   54  -0.1440907978 ABAB
    7    7   54  140  -0.1440907978 ABAB
    7    7  141   39  -0.1421834125 ABAB
    7    7   39  141  -0.1421834125 ABAB
    7    6   28   89  -0.1336776361 ABAB
    6    7   89   28  -0.1336776361 ABAB
    7    7  140   20  -0.1250626165 ABAB
    7    7   20  140  -0.1250626165 ABAB
    7    7  140   45   0.1170143269 ABAB
    7    7   45  140   0.1170143269 ABAB
    7    7  141   54  -0.1161777753 ABAB
    7    7   54  141  -0.1161777753 ABAB
    7    6   39   89  -0.1127986858 ABAB
    6    7   89   39  -0.1127986858 ABAB
        The DBOC first-order density matrix is being calculated 
             (Symmetry block 3, perturbation   2)
 term   4.53917435821416     
 final tnorm  0.857681355601473     
  norm contr. I: |<0|L dT/dx|0>|^2   0.000000000000000E+000
  norm contr. II: <0|[nabla(1+L)e-T][nabla e^T]|0>   4.53917435821416     
  total norm contribution   4.53917435821416     
 oo  7.541000550829172E-003
 vv  -30.2478369001438     
 vo  5.732808153941880E-002
  Correlated perturbed 1-el contribution to DBOC  -30.1829678180535       cm**-1
  SUM_I |dc_I/dx|^2 contribution to DBOC   15.1853482756010       cm**-1
 
 
  The total diagonal Born-Oppenheimer correction (DBOC) is:      0.0038675319 a.u.
  The total diagonal Born-Oppenheimer correction (DBOC) is:        848.825131 cm-1
 
 Total CC energy including DBOC  -113.215672657537     
 First-order density matrix is being calculated  (Symmetry block 3, perturbation   2)
 Calculation of the contributions of <pq||rs> to dI(i,j)/dx required   3.5 seconds.
 Calculation of the contributions of <pq||rs> to dI(a,b)/dx required  16.8 seconds.
 Calculation of the contributions of <pq||rs> to dI(i,a)/dx required   9.8 seconds.
 First-order Z-vector equations are solved for 1 perturbation.
 Convergence reached after  19 iterations.
        U*G(pq,rs) contribution is being calculated
             (Symmetry block 3, perturbation   2)

 CCSD contribution to force constants 

        0.0000000000        0.0000000000        0.0000000000
        0.0000000000        0.0000000000        0.0000000000
        0.0000000000        0.0000000000        0.0000000000
        0.0000000000        0.0000000000        0.0000000000
        0.0000000000        0.0000000000        0.0000000000
        0.0000000000        0.0000000000        0.0000000000
        0.0000000000        0.0000000000        0.0000000000
        0.0000000000        0.0000000000        0.0000000000
        0.0000000000        0.0000000000        0.0000000000
        0.0000000000        0.0000000000        0.0000000000
        0.0000000000        0.0000000000        0.0000000000
        0.0000000000        1.2728226989       -1.2728226989

 CCSD contribution to dipole derivatives 

        0.0000000000        0.0000000000        0.0000000000
        0.0000000000        0.0000000000        0.0000000000
        0.0000000000        0.0000000000        0.0000000000
        0.0000000000        0.0000000000       -0.0524471640
        0.0000000000        0.0000000000        0.0000000000
        0.0000000000        0.0000000000        0.0000000000
 @CHECKOUT-I, Total execution time (CPU/WALL):     1275.22/     447.90 seconds.
--executable xsdcc finished with status     0 in      448.11 seconds (walltime).
 --invoking executable--
/nfs/workspaces/public/cfour_mpi/bin/xanti
 @GETMEM-I,  Allocated    3814 MB of main memory.
 CCSD MO derivative gammas will be sorted to Mulliken order.
 @CHECKOUT-I, Total execution time (CPU/WALL):       12.60/      21.58 seconds.
--executable xanti finished with status     0 in       21.72 seconds (walltime).
 --invoking executable--
/nfs/workspaces/public/cfour_mpi/bin/xbcktrn
 @GETMEM-I,  Allocated    3814 MB of main memory.
 CCSD MO derivative gammas will be transformed to the AO basis.
 @CHECKOUT-I, Total execution time (CPU/WALL):       26.02/      13.84 seconds.
--executable xbcktrn finished with status     0 in       13.90 seconds (walltime).
 --invoking executable--
/nfs/workspaces/public/cfour_mpi/bin/xvdint
 @GETMEM-I,  Allocated    3814 MB of main memory.
 One- and two-electron integral derivatives are calculated
 for RHF-CC/MBPT hessians and dipole derivatives.
 Spherical gaussians are used.
  magnet F F
                    8722  records have been written to the Sort file.
  Total length of Sort file :             178609116  words.
 Evaluation of 2el integral derivatives

                      Two-electron integral gradient
                      ------------------------------

                         C #1 z     0.0000000000
                         O #2 z     0.0000000000


 C #1       0.0000000000           -0.1456623654            0.0000000000
 O #2       0.0000000000            0.1456623654            0.0000000000


 Evaluation of 2e integral derivatives required  350.32 seconds.
  contribution to Hessian
        0.0000000000        0.0000000000        0.0000000000
        0.0000000000       -0.1456623654        0.1456623654
 @CHECKOUT-I, Total execution time (CPU/WALL):      350.31/      71.18 seconds.
--executable xvdint finished with status     0 in       71.38 seconds (walltime).
 --invoking executable--
/nfs/workspaces/public/cfour_mpi/bin/xanti
 @GETMEM-I,  Allocated    3814 MB of main memory.
 CCSD MO gammas will be sorted to Mulliken order.
 @CHECKOUT-I, Total execution time (CPU/WALL):       16.50/      60.82 seconds.
--executable xanti finished with status     0 in       61.43 seconds (walltime).
 --invoking executable--
/nfs/workspaces/public/cfour_mpi/bin/xbcktrn
 @GETMEM-I,  Allocated    3814 MB of main memory.
 CCSD MO gammas will be transformed to the AO basis.
 @CHECKOUT-I, Total execution time (CPU/WALL):       50.13/      10.17 seconds.
--executable xbcktrn finished with status     0 in       10.24 seconds (walltime).
 --invoking executable--
/nfs/workspaces/public/cfour_mpi/bin/xvdint
 @GETMEM-I,  Allocated    3814 MB of main memory.
 One- and two-electron integral derivatives are calculated
 for RHF-CC/MBPT hessians and dipole derivatives.
 Spherical gaussians are used.
  magnet F F

                     Kinetic energy integral gradient
                     --------------------------------

                         C #1 z    -0.9532190539
                         O #2 z     0.9532190539


 C #1       0.0000000000            0.0000000000           -0.9532190539
 O #2       0.0000000000            0.0000000000            0.9532190539



                   Nuclear attraction integral gradient
                   ------------------------------------

                         C #1 z    18.5138463904
                         O #2 z   -18.5138463904


 C #1       0.0000000000            0.0000000000           18.5138463904
 O #2       0.0000000000            0.0000000000          -18.5138463904



                      Reorthonormalization gradient
                      -----------------------------

                         C #1 z     0.0000000000
                         O #2 z     0.0000000000


 C #1       0.0000000000            0.0000000000            0.0000000000
 O #2       0.0000000000            0.0000000000            0.0000000000



                     Kinetic energy integral Hessian
                     -------------------------------


           Symmetry 1

           C #1 z      O #2 z

 C #1 z    0.917699
 O #2 z   -0.917699    0.917699


           Symmetry 2

           C #1 x      O #2 x

 C #1 x   -0.960720
 O #2 x    0.960720   -0.960720


           Symmetry 3

           C #1 y      O #2 y

 C #1 y   -0.960720
 O #2 y    0.960720   -0.960720




           C #1 x      C #1 y      C #1 z      O #2 x      O #2 y      O #2 z

 C #1 x   -0.960720
 C #1 y    0.000000   -0.960720
 C #1 z    0.000000    0.000000    0.917699

 O #2 x    0.960720    0.000000    0.000000   -0.960720
 O #2 y    0.000000    0.960720    0.000000    0.000000   -0.960720
 O #2 z    0.000000    0.000000   -0.917699    0.000000    0.000000    0.917699




                   Nuclear attraction integral Hessian
                   -----------------------------------


           Symmetry 1

           C #1 z      O #2 z

 C #1 z  -11.409718
 O #2 z   11.409718  -11.409718


           Symmetry 2

           C #1 x      O #2 x

 C #1 x   12.871755
 O #2 x  -12.871755   12.871755


           Symmetry 3

           C #1 y      O #2 y

 C #1 y   12.871755
 O #2 y  -12.871755   12.871755




           C #1 x      C #1 y      C #1 z      O #2 x      O #2 y      O #2 z

 C #1 x   12.871755
 C #1 y    0.000000   12.871755
 C #1 z    0.000000    0.000000  -11.409718

 O #2 x  -12.871755    0.000000    0.000000   12.871755
 O #2 y    0.000000  -12.871755    0.000000    0.000000   12.871755
 O #2 z    0.000000    0.000000   11.409718    0.000000    0.000000  -11.409718




                Highest order reorthonormalization Hessian
                ------------------------------------------


           Symmetry 1

           C #1 z      O #2 z

 C #1 z    0.000000
 O #2 z    0.000000    0.000000


           Symmetry 2

           C #1 x      O #2 x

 C #1 x    0.000000
 O #2 x    0.000000    0.000000


           Symmetry 3

           C #1 y      O #2 y

 C #1 y    0.000000
 O #2 y    0.000000    0.000000




           C #1 x      C #1 y      C #1 z      O #2 x      O #2 y      O #2 z




                Electronic contributions to dipole moment
                -----------------------------------------

                               au             Debye

                    z     -0.80608172     -2.04885573

  Conversion factor used: 1 a.u. =   2.54174691 Debye 



   Electronic contributions to static part of dipole moment derivatives
   --------------------------------------------------------------------


                     Total dipole moment derivatives
                     -------------------------------


           Symmetry 1
                              Ez

               C #1 z    -5.62901714
               O #2 z    -8.37098286

           Symmetry 2
                              Ex

               C #1 x    -5.69652695
               O #2 x    -8.30347305

           Symmetry 3
                              Ey

               C #1 y    -5.69652695
               O #2 y    -8.30347305



                       Ex          Ey          Ez

      C #1    x   -5.696527    0.000000    0.000000
      C #1    y    0.000000   -5.696527    0.000000
      C #1    z    0.000000    0.000000   -5.629017

      O #2    x   -8.303473    0.000000    0.000000
      O #2    y    0.000000   -8.303473    0.000000
      O #2    z    0.000000    0.000000   -8.370983

 Evaluation of 1e integral derivatives required    1.76 seconds.
                    8815  records have been written to the Sort file.
  Total length of Sort file :             180513570  words.
 Evaluation of 2el integral derivatives

                      Two-electron integral gradient
                      ------------------------------

                         C #1 z    -9.3370878494
                         O #2 z     9.3370878494


 C #1       0.0000000000            0.0000000000           -9.3370878494
 O #2       0.0000000000            0.0000000000            9.3370878494


 Evaluation of 2e integral derivatives required  705.98 seconds.

                            Molecular gradient
                            ------------------

                         C #1 z     0.6757915693
                         O #2 z    -0.6757915693


 C #1       0.0000000000            0.0000000000            0.6757915693
 O #2       0.0000000000            0.0000000000           -0.6757915693


  Molecular gradient norm 0.956E+00

                            Molecular hessian
                            -----------------


           Symmetry 1

           C #1 z      O #2 z

 C #1 z   37.423875
 O #2 z  -37.423875   37.423875


           Symmetry 2

           C #1 x      O #2 x

 C #1 x   -0.837802
 O #2 x    0.837802   -0.837802


           Symmetry 3

           C #1 y      O #2 y

 C #1 y   -0.837802
 O #2 y    0.837802   -0.837802




           C #1 x      C #1 y      C #1 z      O #2 x      O #2 y      O #2 z

 C #1 x   -0.837802
 C #1 y    0.000000   -0.837802
 C #1 z    0.000000    0.000000   37.423875

 O #2 x    0.837802    0.000000    0.000000   -0.837802
 O #2 y    0.000000    0.837802    0.000000    0.000000   -0.837802
 O #2 z    0.000000    0.000000  -37.423875    0.000000    0.000000   37.423875




                           Total dipole moment
                           -------------------

                               au             Debye

                    z      0.20224597      0.51405808

  Conversion factor used: 1 a.u. =   2.54174691 Debye 



                     Total dipole moment derivatives
                     -------------------------------


           Symmetry 1
                              Ez

               C #1 z     0.69036265
               O #2 z    -0.69036265

           Symmetry 2
                              Ex

               C #1 x     0.08216989
               O #2 x    -0.08216989

           Symmetry 3
                              Ey

               C #1 y     0.08216989
               O #2 y    -0.08216989



                       Ex          Ey          Ez

      C #1    x    0.082170    0.000000    0.000000
      C #1    y    0.000000    0.082170    0.000000
      C #1    z    0.000000    0.000000    0.690363

      O #2    x   -0.082170    0.000000    0.000000
      O #2    y    0.000000   -0.082170    0.000000
      O #2    z    0.000000    0.000000   -0.690363

 @CHECKOUT-I, Total execution time (CPU/WALL):      707.73/     131.49 seconds.
--executable xvdint finished with status     0 in      131.65 seconds (walltime).
 --invoking executable--
/nfs/workspaces/public/cfour_mpi/bin/xjoda
  @GTFLGS-I, Hessian will be transformed to curvilinear coordinates.
  @GTFLGS-I, Hessian will be transformed to curvilinear coordinates.
  igrd and ihes are                      0                     1
  gradient from JOBARC 
   0.000000000000000   0.000000000000000   0.675791569338422
   0.000000000000000   0.000000000000000  -0.675791569338422
 
  @PROJFCM-I, Projecting force constant matrix onto totally symmetric subspace.
  Largest difference between matrix elements of symmetrized
  and unsymmetrized FCM :     0.4213629445E-11.
  read isotopes from ZMAT file 
 
  Summary of diagonal Born-Oppenheimer correction at the correlated level
  The total diagonal Born-Oppenheimer correction (DBOC) is:      0.0038675319 a.u.
  The total diagonal Born-Oppenheimer correction (DBOC) is:        848.825131 cm-1
  The total diagonal Born-Oppenheimer correction (DBOC) is:            10.154 kJ/mole
  hellooooooo 
  readis is  F
 
 @CHECKOUT-I, Total execution time (CPU/WALL):        0.01/       0.10 seconds.
--executable xjoda finished with status     0 in        0.15 seconds (walltime).
  The final electronic energy is      -113.215672657536686 a.u. 
  This computation required                         3930.76 seconds (walltime).
