 --invoking executable--
/nfs/workspaces/public/cfour_mpi/bin/xjoda


   *************************************************************************
         <<<     CCCCCC     CCCCCC   |||     CCCCCC     CCCCCC   >>>
       <<<      CCC        CCC       |||    CCC        CCC         >>>
      <<<      CCC        CCC        |||   CCC        CCC            >>>
    <<<        CCC        CCC        |||   CCC        CCC              >>>
      <<<      CCC        CCC        |||   CCC        CCC            >>>
       <<<      CCC        CCC       |||    CCC        CCC         >>>
         <<<     CCCCCC     CCCCCC   |||     CCCCCC     CCCCCC   >>>
   *************************************************************************

     ****************************************************************
     * CFOUR Coupled-Cluster techniques for Computational Chemistry *
     ****************************************************************
 

   Department of Chemistry                Institut fuer Physikalische Chemie
   University of Florida                  Universitaet Mainz
   Gainesville, FL 32611, USA             D-55099 Mainz, Germany

   Department of Chemistry                Fakultaet fuer Chemie und Biowiss.
   Johns Hopkins University               Karlsruher Institut fuer Technologie
   Baltimore, MD 21218, USA               D-76131 Karlsruhe, Germany

   Department of Chemistry                Department of Physical Chemistry
   Southern Methodist University          Eotvos Lorand University
   Dallas, TX 75275, USA                  H-1053 Budapest, Hungary

 
                       Version 2.1
 
                     vincent.theory.phys.ucl.ac.uk                     
                     Sat  1 Mar 18:07:34 GMT 2025                      
                     integer*8 version is running
 
********************************************************************************
*                          Input from ZMAT file                                *
********************************************************************************
Carbon Monoxide DBOC calculation                                                
C                                                                               
O 1 r                                                                           
                                                                                
r=1.1172413793103448                                                            
                                                                                
                                                                                
*CFOUR(CALC=CCSD,BASIS=AUG-PCVQZ,SCF_CONV=10                                    
CC_CONV=14,DBOC=ON,MEMORY=500000000                                             
ZFIELD=200)                                                                     
                                                                                
%isotopes                                                                       
12                                                                              
18                                                                              
********************************************************************************
  @GTFLGS-I, Hessian will be transformed to curvilinear coordinates.
    -------------------------------------------------------------------
                    CFOUR Control Parameters 
    -------------------------------------------------------------------
        External           Internal           Value            Units
          Name               Name
    -------------------------------------------------------------------
       ABCDTYPE             IABCDT         STANDARD    [  0]    ***   
       ANHARMONIC           IANHAR         OFF         [  0]    ***   
       ANH_ALGORIT          IANALG         STANDARD    [  0]    ***   
       ANH_DERIVAT          IANDER         SECOND      [  1]    ***   
       ANH_MODE             ANHMOD         VIBRATION   [  0]    ***   
       ANH_STEPSIZ          ICUBST             50000          x 10-6  
       ANH_SYMMETR          IANHSM         ABELIAN     [  0]    ***   
       AO_LADDERS           IAOLAD         SINGLEPASS  [  1]    ***   
       AV_SCF               IAVSCF         OFF         [  0]    ***   
       BASIS                IBASIS         AUG-PCVQZ   [ 52]    ***   
       BOTHVECTORS          BOTHVC         OFF         [  0]    ***   
       BOX_POTENT           IPIAB          OFF         [  0]    ***   
       BREIT                IBREIT         OFF         [  0]    ***   
       BRUCK_CONV           IBRTOL          10D-  4             ***   
       BRUECKNER            IBRKNR         OFF         [  0]    ***   
       BUFFERSIZE           IBUFFS              4096            ***   
       CACHE_RECS           ICHREC             10               ***   
       CALCLEVEL            ICLLVL         CCSD        [ 10]    ***   
       CCORBOPT             ICCORB         OFF         [  0]  x 0.01  
       CC_CONV              ICCCNV          10D- 14             ***   
       CC_EXPORDER          ICCEOR              5               ***   
       CC_EXTRAPOL          ICCEXT         DIIS        [  1]    ***   
       CC_GUESS             ICCGES         MP2         [  0]    ***   
       CC_MAXCYC            ICCCYC            100              cycles 
       CC_PROGRAM           ICCPRO         VCC         [  0]    ***   
       CHARGE               ICHRGE              0               ***   
       CHOLESKY             ICHOLE         OFF         [  0]    ***   
       CIS_CONV             ICISTL              5               ***   
       COMM_SIZE            IPSIZE            ***               ***   
       CONSTANT             ICONST         OLD         [  1]    ***   
       CONTINUUM            ICONTU         NONE        [  0]    ***   
       CONTRACTION          ICNTYP         GENERAL     [  1]    ***   
       COORDINATES          ICOORD         INTERNAL    [  0]    ***   
       CPHF_CONVER          ICPHFT          10D- 16             ***   
       CPHF_MAXCYC          ICPHFC             64              cycles 
       CUBIC                ICUBIC         OFF         [  0]    ***   
       CURVILINEAR          ICURVY         ON          [  1]    ***   
       DBOC                 IDBOC          ON          [  1]    ***   
       DCT                  IDCT           OFF         [  0]    ***   
       DERIV_LEV            IDRLVL         SECOND      [  2]    ***   
       DEVMEM_SIZE          IDVMEM          50000000           MByte  
       DIAG_MRCC            IEOMST          10D-  0             ***   
       DIFF_TYPE            IDIFTY         RELAXED     [  0]    ***   
       DIRECT               IDIRCT         OFF         [  0]    ***   
       DROPMO               IDRPMO      NONE         
       ECP                  IECP           OFF         [  0]    ***   
       EIGENVECTOR          IVEC                1               ***   
       EL_ANHARM            IELANH         OFF         [  0]    ***   
       EOMFOLLOW            IEOMSR         ENERGY      [  0]    ***   
       EOMIP                IEOMIP         OFF         [  0]    ***   
       EOMLEVEL             HBARFM         SAME        [  0]    ***   
       EOM_MRCC             IMRCCE         NEW         [  1]    ***   
       EOM_NONIT            EOMNON         OFF         [  0]    ***   
       EOM_NSING            IEOMSI          10D-  0             ***   
       EOM_NSTATES          IMRCCD         DAVIDSON    [  0]    ***   
       EOM_NTRIP            IEOMTR          10D-  0             ***   
       EOM_ORDER            IEXORD         ENERGY      [  0]    ***   
       EOM_PROPSTA          IEOMST              0               ***   
       ESTATE_CONV          IEXTOL          10D-  5             ***   
       ESTATE_DIAG          IEXDIG         ITERATIVE   [  0]    ***   
       ESTATE_LOCK          IESLOC         ON          [  1]    ***   
       ESTATE_MAXC          IEXMXC             40               ***   
       ESTATE_PROP          IEXPRP         OFF         [  0]    ***   
       EVAL_HESS            IRECAL              0            # of cyc.
       EXCITATION           IEXCIT              0               ***   
       EXCITE               IEXCIT         NONE        [  0]    ***   
       EXTERN_POT           IEXPOT         OFF         [  0]    ***   
       FCGRADNEW            IFCGNW         OFF         [  0]    ***   
       FC_FIELD             IFINFC              0             x 10-6  
       FD_CALTYPE           IFDCAL         GRADONLY    [  0]    ***   
       FD_PROJECT           IFDPRJ         OFF         [  1]    ***   
       FD_STEPSIZE          IDISFD              0            10-4 bohr
       FD_USEGROUP          IFDGRP         FULL        [  0]    ***   
       FILE_RECSIZ          IFLREC              4096           words  
       FINITE_PERT          IFIPER              0             x 10-6  
       FIXGEOM              IFIXGM         OFF         [  0]    ***   
       FOCK                 IFOCK          AO          [  1]    ***   
       FREQ_ALGORI          IVIALG         STANDARD    [  0]    ***   
       FROZEN_CORE          IFROCO         OFF         [  0]    ***   
       GAMMA_ABCD           IGABCD         STORE       [  0]    ***   
       GAMMA_ABCI           IGABCI         STORE       [  0]    ***   
       GENBAS_1             IGNBS1              0               ***   
       GENBAS_2             IGNBS2              0               ***   
       GENBAS_3             IGNBS3              0               ***   
       GENBAS_4             IGNBS4              0               ***   
       GEO_CONV             ICONTL              5              H/bohr 
       GEO_MAXCYC           IOPTCY             50               ***   
       GEO_MAXSTEP          IMXSTP            300            millibohr
       GEO_METHOD           INR            SINGLE_POINT[  5]    ***   
       GIAO                 IGIAO          OFF         [  1]    ***   
       GIMIC                IGIMIC         OFF         [  0]    ***   
       GRID                 IGRID          OFF         [  0]    ***   
       GRID_ALGO            IGALGO         SERIAL      [  0]    ***   
       GUESS                IGUESS         MOREAD      [  0]    ***   
       HBAR                 IHBAR          OFF         [  0]    ***   
       HESS_TYPE            IHESTP         SCF         [  0]    ***   
       HF2_FILE             IHF2Fl         USE         [  1]    ***   
       HFSTABILITY          ISTABL         OFF         [  0]    ***   
       INCORE               INCORE         OFF         [  0]    ***   
       INPUT_MRCC           IMRCC          ON          [  1]    ***   
       INTEGRALS            INTTYP         VMOL        [  1]    ***   
       JODA_PRINT           IJPRNT              0               ***   
       KEYWORD_OUT          IDMPKW         NO          [  0]    ***   
       LINDEP_TOL           ILINDP              8               ***   
       LINEQ_CONV           IZTACN          10D-  7           cycles  
       LINEQ_EXPOR          ILMAXD              5               ***   
       LINEQ_MAXCY          ILMAXC            100               ***   
       LINEQ_TYPE           ILTYPE         DIIS        [  1]    ***   
       LOCK_ORBOCC          ILOCOC         OFF         [  0]    ***   
       MEMORY_SIZE          IMEMSZ         500000000           words  
       MEM_UNIT             IMEMU          INTEGERWORDS[  0]    ***   
       MRCC                 IMRCCC         OFF         [  0]    ***   
       MULTIPLICTY          IMULTP              1               ***   
       NACOUPLING           IVCOUP         OFF         [  0]    ***   
       NEGEVAL              IDIE           ABORT       [  0]    ***   
       NEWNORM              INEWNO         OFF         [  0]    ***   
       NON-HF               INONHF         OFF         [  0]    ***   
       NTOP_TAMP            ITOPT2             15               ***   
       NUC_MODEL            INUCMO         POINT       [  0]    ***   
       OCCUPATION           IOCCU   ESTIMATED BY SCF 
       OPEN-SHELL           IOPEN          SPIN-ORBITAL[  0]    ***   
       OPTVIB               IOPTVB         OFF         [  0]    ***   
       ORBITALS             IORBTP         STANDARD    [  0]    ***   
       PARALLEL             IPARAL         ON          [  1]    ***   
       PARA_INT             IPINTS         ON          [  1]    ***   
       PARA_PRINT           IPPRIN              0               ***   
       PERT_ORB             IPTORB         STANDARD    [  0]    ***   
       POINTS               IGRDFD              0               ***   
       PRINT                IPRNT               0               ***   
       PROPS                IPROPS         OFF         [  0]    ***   
       PROP_INTEGR          IINTYP         INTERNAL    [  0]    ***   
       PSI                  IPSI           OFF         [  0]    ***   
       QC_ALG               IQCALG         FLM         [  0]    ***   
       QC_LINALG            IQCLIN         TRIDIAG     [  2]    ***   
       QC_MAXCYC            IQCMAX          10D-100           cycles  
       QC_MAXSCFCY          IQCMSC          10D- 15           cycles  
       QC_RTRUST            IQCRTR          10D-  0           x 10-3  
       QC_SKIPSCF           IQCSKI         OFF         [  0]    ***   
       QC_START             IQCSTA          10D-  1             ***   
       QRHFGUESS            IQGUES         OFF         [  0]    ***   
       QUARTIC              IQUART         OFF         [  0]    ***   
       RAMAN_INT            IRAMIN         OFF         [  0]    ***   
       RAMAN_ORB            IRAMRE         UNRELAXED   [  0]    ***   
       RDO                  IRDOFM         ON          [  1]    ***   
       REDUCE_REPR          REDREP         Ir          [  0]    ***   
       REFERENCE            IREFNC         RHF         [  0]    ***   
       RELATIVIST           IRELAT         OFF         [  0]    ***   
       RELAX_DENS           IRDENS         ON          [  1]    ***   
       RESET_FLAGS          IRESET         OFF         [  0]    ***   
       RESTART_CC           ICCRES         OFF         [  0]    ***   
       ROT_EVEC             ROTVEC              0               ***   
       SAVE_INTS            ISVINT         OFF         [  0]    ***   
       SCALE_ON             ISTCRT              0               ***   
       SCF_CONV             ISCFCV          10D- 10             ***   
       SCF_DAMPING          IDAMP               0             x 10-3  
       SCF_EXPORDE          IRPPOR              6               ***   
       SCF_EXPSTAR          IRPPLS              8               ***   
       SCF_EXTRAPO          IRPP           ON          [  1]    ***   
       SCF_MAXCYC           ISCFCY            150              cycles 
       SCF_NOSTOP           ISCFST         OFF         [  0]    ***   
       SCF_PRINT            ISCFPR              0               ***   
       SCF_PROG             ISCFPR         SCF         [  0]    ***   
       SD_FIELD             IFINSD              0             x 10-6  
       SOPERT               IPERSO         OFF         [  0]    ***   
       SPHERICAL            IDFGHI         ON          [  1]    ***   
       SPINORBIT            ISOCAL         OFF         [  0]    ***   
       SPINROTATIO          ISRCON         OFF         [  0]    ***   
       SPIN_FLIP            ISPFLP         OFF         [  0]    ***   
       SPIN_ORBIT           ISPORB         OFF         [  0]    ***   
       SPIN_SCAL            ISCSMP         OFF         [  0]    ***   
       STEEPSCALE           ISTPSC              1000          x 10-3  
       SUBGROUP             ISUBGP         DEFAULT     [  0]    ***   
       SUBGRPAXIS           ISBXYZ         X           [  0]    ***   
       SYMMETRY             ISYM           ON          [  0]    ***   
       SYM_CHECK            ISYMCK         OVERRIDE    [  1]    ***   
       T3_EXTRAPOL          IT3EXT         OFF         [  0]    ***   
       T4_EXTRAPOL          IT4EXP         OFF         [  0]    ***   
       TAMP_SUM             IEVERY              5               ***   
       TESTSUITE            ITESTS         OFF         [  0]    ***   
       THERMOCH             ITHERM         OFF         [  0]    ***   
       TOL_CHOLESK          ITOLCH          10D-  4             ***   
       TRANGRAD             IRESRM         OFF         [  0]    ***   
       TRANS_INV            ITRAIN         IGNORE      [  1]    ***   
       TREAT_PERT           ITREAT         SIMULTANEOUS[  0]    ***   
       TRIP_ALGORI          ITRALG         NORMAL      [  0]    ***   
       UIJ_THRESHO          IUIJTH              1               ***   
       UNITS                IUNITS         ANGSTROM    [  0]    ***   
       UNOS                 IUNOS          OFF         [  0]    ***   
       UPDATE_HESS          IHUPDT         ON          [  1]    ***   
       VIBPHASE             ISETPH         STANDARD    [  0]    ***   
       VIBRATION            IVIB           ANALYTIC    [  1]    ***   
       VIB_ALGORIT          IGEALG         STANDARD    [  0]    ***   
       VNATORB              IVNORB         OFF         [  0]    ***   
       VTRAN                IVTRAN         FULL/PARTIAL[  0]    ***   
       XFIELD               IXEFLD              0             x 10-6  
       XFORM_TOL            IXFTOL          10D- 11             ***   
       YFIELD               IYEFLD              0             x 10-6  
       ZFIELD               IZEFLD            200             x 10-6  
       ZSCALE_EXP           IZEXPS         OFF         [  0]    ***   
    -------------------------------------------------------------------
   2 entries found in Z-matrix 
   Job Title : Carbon Monoxide DBOC calculation                                                
   There are  1 unique internal coordinates.
   Of these,  0 will be optimized.
   User supplied Z-matrix: 
--------------------------------------------------------------------------------
       SYMBOL    BOND      LENGTH    ANGLE     ANGLE     DIHED     ANGLE
                  TO      (ANGST)    WRT      (DEG)      WRT      (DEG)
--------------------------------------------------------------------------------
        C    
        O          1         r    
                  *Initial values for internal coordinates* 
                      Name             Value
                        r               1.1172413793
--------------------------------------------------------------------------------
  read isotopes from ZMAT file 
   Rotational constants (in cm-1): 
          1.8757637487             1.8757637487
   Rotational constants (in MHz): 
      56233.9903622208         56233.9903622208
********************************************************************************
   The full molecular point group is CXv .
   The largest Abelian subgroup of the full molecular point group is C2v .
   The computational point group is C2v .
********************************************************************************
--------------------------------------------------------------------------------
   Analysis of internal coordinates specified by Z-matrix 
--------------------------------------------------------------------------------
   *The nuclear repulsion energy is   22.735016148148148 a.u.
   *There is   1 degree of freedom within the tot. symm. molecular subspace.
   *Z-matrix requests optimization of   0 coordinates.
   *The optimization is constrained.
   *The following   1 parameters can have non-zero 
    derivatives within the totally symmetric subspace:
             r    [ 1]
   *The following   0 parameters are to be optimized:

   *The following coordinates must be varied in an  unconstrained optimization.
             r    [ 1]
--------------------------------------------------------------------------------


 ----------------------------------------------------------------
         Coordinates used in calculation (QCOMP) 
 ----------------------------------------------------------------
 Z-matrix   Atomic            Coordinates (in bohr)
  Symbol    Number           X              Y              Z
 ----------------------------------------------------------------
     C         6        -0.00000000     0.00000000     1.26674476
     O         8         0.00000000     0.00000000    -0.84453590
 ----------------------------------------------------------------
 
   Interatomic distance matrix (Angstroms) 
 
                 C             O    
                [ 1]        [ 2]
  C    [ 1]     0.00000
  O    [ 2]     1.11724     0.00000
 rotcon2
   Rotational constants (in cm-1): 
          1.8757637487             0.0000000000
   Rotational constants (in MHz): 
      56233.9903622208             0.0000000000
  ECPDATA file not present.   Using default ECPDATA. 
  @GTFLGS-I, Hessian will be transformed to curvilinear coordinates.
  There are  218 basis functions.
 @CHECKOUT-I, Total execution time (CPU/WALL):        0.27/       0.37 seconds.
--executable xjoda finished with status     0 in        0.41 seconds (walltime).
 --invoking executable--
/nfs/workspaces/public/cfour_mpi/bin/xvmol
 SERIAL VERSION OF MOLECULE STARTED
********************************************************************************
                    INPUT FROM MOL FILE
********************************************************************************
INTGRL        1    0    1    0    0    0    0    0    0                         
         *** CFOUR Program System (Release V0.1) ***                            
Carbon Monoxide DBOC calculation                                                
    2    2 X  Y       0.10E-08              0    0                              
   9999.00      3.00                                                            
          6.00000000    1    5    1    1    1    1    1                         
C #1  -0.000000000000000   0.000000000000000   1.266744760122080                
   16    9                                                                      
   33980.0000000000       9.100000000000000E-005 -1.900000000000000E-005        
  0.000000000000000E+000  0.000000000000000E+000  0.000000000000000E+000        
  0.000000000000000E+000  0.000000000000000E+000  0.000000000000000E+000        
  0.000000000000000E+000                                                        
   5089.00000000000       7.040000000000000E-004 -1.510000000000000E-004        
  0.000000000000000E+000  0.000000000000000E+000  0.000000000000000E+000        
  0.000000000000000E+000  0.000000000000000E+000  0.000000000000000E+000        
  0.000000000000000E+000                                                        
   1157.00000000000       3.693000000000000E-003 -7.850000000000000E-004        
  0.000000000000000E+000  0.000000000000000E+000  0.000000000000000E+000        
  0.000000000000000E+000  0.000000000000000E+000  0.000000000000000E+000        
  0.000000000000000E+000                                                        
   326.600000000000       1.536000000000000E-002 -3.324000000000000E-003        
  0.000000000000000E+000  0.000000000000000E+000  0.000000000000000E+000        
  0.000000000000000E+000  0.000000000000000E+000  0.000000000000000E+000        
  0.000000000000000E+000                                                        
   106.100000000000       5.292900000000000E-002 -1.151200000000000E-002        
  0.000000000000000E+000  0.000000000000000E+000  0.000000000000000E+000        
  0.000000000000000E+000  0.000000000000000E+000  0.000000000000000E+000        
  0.000000000000000E+000                                                        
   38.1100000000000       0.147043000000000      -3.416000000000000E-002        
  0.000000000000000E+000  0.000000000000000E+000  0.000000000000000E+000        
  0.000000000000000E+000  0.000000000000000E+000  0.000000000000000E+000        
  0.000000000000000E+000                                                        
   14.7500000000000       0.305631000000000      -7.717300000000001E-002        
  0.000000000000000E+000  0.000000000000000E+000  0.000000000000000E+000        
  0.000000000000000E+000  0.000000000000000E+000  0.000000000000000E+000        
  0.000000000000000E+000                                                        
   6.03500000000000       0.399345000000000      -0.141493000000000             
  0.000000000000000E+000  0.000000000000000E+000  0.000000000000000E+000        
  0.000000000000000E+000  0.000000000000000E+000  0.000000000000000E+000        
  0.000000000000000E+000                                                        
   2.53000000000000       0.217051000000000      -0.118019000000000             
  0.000000000000000E+000  0.000000000000000E+000  0.000000000000000E+000        
  0.000000000000000E+000  0.000000000000000E+000  0.000000000000000E+000        
  0.000000000000000E+000                                                        
  0.735500000000000       1.589400000000000E-002  0.273806000000000             
   1.00000000000000       0.000000000000000E+000  0.000000000000000E+000        
  0.000000000000000E+000  0.000000000000000E+000  0.000000000000000E+000        
  0.000000000000000E+000                                                        
  0.290500000000000      -3.084000000000000E-003  0.586510000000000             
  0.000000000000000E+000   1.00000000000000       0.000000000000000E+000        
  0.000000000000000E+000  0.000000000000000E+000  0.000000000000000E+000        
  0.000000000000000E+000                                                        
  0.111100000000000       9.779999999999999E-004  0.285430000000000             
  0.000000000000000E+000  0.000000000000000E+000   1.00000000000000             
  0.000000000000000E+000  0.000000000000000E+000  0.000000000000000E+000        
  0.000000000000000E+000                                                        
   7.21600000000000       0.000000000000000E+000  0.000000000000000E+000        
  0.000000000000000E+000  0.000000000000000E+000  0.000000000000000E+000        
   1.00000000000000       0.000000000000000E+000  0.000000000000000E+000        
  0.000000000000000E+000                                                        
   19.5700000000000       0.000000000000000E+000  0.000000000000000E+000        
  0.000000000000000E+000  0.000000000000000E+000  0.000000000000000E+000        
  0.000000000000000E+000   1.00000000000000       0.000000000000000E+000        
  0.000000000000000E+000                                                        
   53.0730000000000       0.000000000000000E+000  0.000000000000000E+000        
  0.000000000000000E+000  0.000000000000000E+000  0.000000000000000E+000        
  0.000000000000000E+000  0.000000000000000E+000   1.00000000000000             
  0.000000000000000E+000                                                        
  4.145000000000000E-002  0.000000000000000E+000  0.000000000000000E+000        
  0.000000000000000E+000  0.000000000000000E+000  0.000000000000000E+000        
  0.000000000000000E+000  0.000000000000000E+000  0.000000000000000E+000        
   1.00000000000000                                                             
   10    8                                                                      
   34.5100000000000       5.378000000000000E-003  0.000000000000000E+000        
  0.000000000000000E+000  0.000000000000000E+000  0.000000000000000E+000        
  0.000000000000000E+000  0.000000000000000E+000  0.000000000000000E+000        
   7.91500000000000       3.613200000000000E-002  0.000000000000000E+000        
  0.000000000000000E+000  0.000000000000000E+000  0.000000000000000E+000        
  0.000000000000000E+000  0.000000000000000E+000  0.000000000000000E+000        
   2.36800000000000       0.142493000000000       0.000000000000000E+000        
  0.000000000000000E+000  0.000000000000000E+000  0.000000000000000E+000        
  0.000000000000000E+000  0.000000000000000E+000  0.000000000000000E+000        
  0.813200000000000       0.342150000000000        1.00000000000000             
  0.000000000000000E+000  0.000000000000000E+000  0.000000000000000E+000        
  0.000000000000000E+000  0.000000000000000E+000  0.000000000000000E+000        
  0.289000000000000       0.463864000000000       0.000000000000000E+000        
   1.00000000000000       0.000000000000000E+000  0.000000000000000E+000        
  0.000000000000000E+000  0.000000000000000E+000  0.000000000000000E+000        
  0.100700000000000       0.250028000000000       0.000000000000000E+000        
  0.000000000000000E+000   1.00000000000000       0.000000000000000E+000        
  0.000000000000000E+000  0.000000000000000E+000  0.000000000000000E+000        
   8.18200000000000       0.000000000000000E+000  0.000000000000000E+000        
  0.000000000000000E+000  0.000000000000000E+000   1.00000000000000             
  0.000000000000000E+000  0.000000000000000E+000  0.000000000000000E+000        
   24.1860000000000       0.000000000000000E+000  0.000000000000000E+000        
  0.000000000000000E+000  0.000000000000000E+000  0.000000000000000E+000        
   1.00000000000000       0.000000000000000E+000  0.000000000000000E+000        
   71.4940000000000       0.000000000000000E+000  0.000000000000000E+000        
  0.000000000000000E+000  0.000000000000000E+000  0.000000000000000E+000        
  0.000000000000000E+000   1.00000000000000       0.000000000000000E+000        
  3.218000000000000E-002  0.000000000000000E+000  0.000000000000000E+000        
  0.000000000000000E+000  0.000000000000000E+000  0.000000000000000E+000        
  0.000000000000000E+000  0.000000000000000E+000   1.00000000000000             
    6    6                                                                      
   1.84800000000000        1.00000000000000       0.000000000000000E+000        
  0.000000000000000E+000  0.000000000000000E+000  0.000000000000000E+000        
  0.000000000000000E+000                                                        
  0.649000000000000       0.000000000000000E+000   1.00000000000000             
  0.000000000000000E+000  0.000000000000000E+000  0.000000000000000E+000        
  0.000000000000000E+000                                                        
  0.228000000000000       0.000000000000000E+000  0.000000000000000E+000        
   1.00000000000000       0.000000000000000E+000  0.000000000000000E+000        
  0.000000000000000E+000                                                        
   8.65600000000000       0.000000000000000E+000  0.000000000000000E+000        
  0.000000000000000E+000   1.00000000000000       0.000000000000000E+000        
  0.000000000000000E+000                                                        
   33.2130000000000       0.000000000000000E+000  0.000000000000000E+000        
  0.000000000000000E+000  0.000000000000000E+000   1.00000000000000             
  0.000000000000000E+000                                                        
  7.660000000000000E-002  0.000000000000000E+000  0.000000000000000E+000        
  0.000000000000000E+000  0.000000000000000E+000  0.000000000000000E+000        
   1.00000000000000                                                             
    4    4                                                                      
   1.41900000000000        1.00000000000000       0.000000000000000E+000        
  0.000000000000000E+000  0.000000000000000E+000                                
  0.485000000000000       0.000000000000000E+000   1.00000000000000             
  0.000000000000000E+000  0.000000000000000E+000                                
   24.6940000000000       0.000000000000000E+000  0.000000000000000E+000        
   1.00000000000000       0.000000000000000E+000                                
  0.187000000000000       0.000000000000000E+000  0.000000000000000E+000        
  0.000000000000000E+000   1.00000000000000                                     
    2    2                                                                      
   1.01100000000000        1.00000000000000       0.000000000000000E+000        
  0.424000000000000       0.000000000000000E+000   1.00000000000000             
          8.00000000    1    5    1    1    1    1    1                         
O #2   0.000000000000000   0.000000000000000  -0.844535904347991                
   16    9                                                                      
   61420.0000000000       9.000000000000001E-005 -2.000000000000000E-005        
  0.000000000000000E+000  0.000000000000000E+000  0.000000000000000E+000        
  0.000000000000000E+000  0.000000000000000E+000  0.000000000000000E+000        
  0.000000000000000E+000                                                        
   9199.00000000000       6.980000000000001E-004 -1.590000000000000E-004        
  0.000000000000000E+000  0.000000000000000E+000  0.000000000000000E+000        
  0.000000000000000E+000  0.000000000000000E+000  0.000000000000000E+000        
  0.000000000000000E+000                                                        
   2091.00000000000       3.664000000000000E-003 -8.290000000000000E-004        
  0.000000000000000E+000  0.000000000000000E+000  0.000000000000000E+000        
  0.000000000000000E+000  0.000000000000000E+000  0.000000000000000E+000        
  0.000000000000000E+000                                                        
   590.900000000000       1.521800000000000E-002 -3.508000000000000E-003        
  0.000000000000000E+000  0.000000000000000E+000  0.000000000000000E+000        
  0.000000000000000E+000  0.000000000000000E+000  0.000000000000000E+000        
  0.000000000000000E+000                                                        
   192.300000000000       5.242300000000000E-002 -1.215600000000000E-002        
  0.000000000000000E+000  0.000000000000000E+000  0.000000000000000E+000        
  0.000000000000000E+000  0.000000000000000E+000  0.000000000000000E+000        
  0.000000000000000E+000                                                        
   69.3200000000000       0.145921000000000      -3.626100000000000E-002        
  0.000000000000000E+000  0.000000000000000E+000  0.000000000000000E+000        
  0.000000000000000E+000  0.000000000000000E+000  0.000000000000000E+000        
  0.000000000000000E+000                                                        
   26.9700000000000       0.305258000000000      -8.299200000000000E-002        
  0.000000000000000E+000  0.000000000000000E+000  0.000000000000000E+000        
  0.000000000000000E+000  0.000000000000000E+000  0.000000000000000E+000        
  0.000000000000000E+000                                                        
   11.1000000000000       0.398508000000000      -0.152090000000000             
  0.000000000000000E+000  0.000000000000000E+000  0.000000000000000E+000        
  0.000000000000000E+000  0.000000000000000E+000  0.000000000000000E+000        
  0.000000000000000E+000                                                        
   4.68200000000000       0.216980000000000      -0.115331000000000             
  0.000000000000000E+000  0.000000000000000E+000  0.000000000000000E+000        
  0.000000000000000E+000  0.000000000000000E+000  0.000000000000000E+000        
  0.000000000000000E+000                                                        
   1.42800000000000       1.759400000000000E-002  0.288979000000000             
   1.00000000000000       0.000000000000000E+000  0.000000000000000E+000        
  0.000000000000000E+000  0.000000000000000E+000  0.000000000000000E+000        
  0.000000000000000E+000                                                        
  0.554700000000000      -2.502000000000000E-003  0.586128000000000             
  0.000000000000000E+000   1.00000000000000       0.000000000000000E+000        
  0.000000000000000E+000  0.000000000000000E+000  0.000000000000000E+000        
  0.000000000000000E+000                                                        
  0.206700000000000       9.540000000000000E-004  0.277624000000000             
  0.000000000000000E+000  0.000000000000000E+000   1.00000000000000             
  0.000000000000000E+000  0.000000000000000E+000  0.000000000000000E+000        
  0.000000000000000E+000                                                        
   12.9740000000000       0.000000000000000E+000  0.000000000000000E+000        
  0.000000000000000E+000  0.000000000000000E+000  0.000000000000000E+000        
   1.00000000000000       0.000000000000000E+000  0.000000000000000E+000        
  0.000000000000000E+000                                                        
   34.9000000000000       0.000000000000000E+000  0.000000000000000E+000        
  0.000000000000000E+000  0.000000000000000E+000  0.000000000000000E+000        
  0.000000000000000E+000   1.00000000000000       0.000000000000000E+000        
  0.000000000000000E+000                                                        
   93.8810000000000       0.000000000000000E+000  0.000000000000000E+000        
  0.000000000000000E+000  0.000000000000000E+000  0.000000000000000E+000        
  0.000000000000000E+000  0.000000000000000E+000   1.00000000000000             
  0.000000000000000E+000                                                        
  6.959000000000000E-002  0.000000000000000E+000  0.000000000000000E+000        
  0.000000000000000E+000  0.000000000000000E+000  0.000000000000000E+000        
  0.000000000000000E+000  0.000000000000000E+000  0.000000000000000E+000        
   1.00000000000000                                                             
   10    8                                                                      
   63.4200000000000       6.044000000000000E-003  0.000000000000000E+000        
  0.000000000000000E+000  0.000000000000000E+000  0.000000000000000E+000        
  0.000000000000000E+000  0.000000000000000E+000  0.000000000000000E+000        
   14.6600000000000       4.179900000000000E-002  0.000000000000000E+000        
  0.000000000000000E+000  0.000000000000000E+000  0.000000000000000E+000        
  0.000000000000000E+000  0.000000000000000E+000  0.000000000000000E+000        
   4.45900000000000       0.161143000000000       0.000000000000000E+000        
  0.000000000000000E+000  0.000000000000000E+000  0.000000000000000E+000        
  0.000000000000000E+000  0.000000000000000E+000  0.000000000000000E+000        
   1.53100000000000       0.356731000000000        1.00000000000000             
  0.000000000000000E+000  0.000000000000000E+000  0.000000000000000E+000        
  0.000000000000000E+000  0.000000000000000E+000  0.000000000000000E+000        
  0.530200000000000       0.448309000000000       0.000000000000000E+000        
   1.00000000000000       0.000000000000000E+000  0.000000000000000E+000        
  0.000000000000000E+000  0.000000000000000E+000  0.000000000000000E+000        
  0.175000000000000       0.244940000000000       0.000000000000000E+000        
  0.000000000000000E+000   1.00000000000000       0.000000000000000E+000        
  0.000000000000000E+000  0.000000000000000E+000  0.000000000000000E+000        
   14.4750000000000       0.000000000000000E+000  0.000000000000000E+000        
  0.000000000000000E+000  0.000000000000000E+000   1.00000000000000             
  0.000000000000000E+000  0.000000000000000E+000  0.000000000000000E+000        
   42.7300000000000       0.000000000000000E+000  0.000000000000000E+000        
  0.000000000000000E+000  0.000000000000000E+000  0.000000000000000E+000        
   1.00000000000000       0.000000000000000E+000  0.000000000000000E+000        
   126.140000000000       0.000000000000000E+000  0.000000000000000E+000        
  0.000000000000000E+000  0.000000000000000E+000  0.000000000000000E+000        
  0.000000000000000E+000   1.00000000000000       0.000000000000000E+000        
  5.348000000000000E-002  0.000000000000000E+000  0.000000000000000E+000        
  0.000000000000000E+000  0.000000000000000E+000  0.000000000000000E+000        
  0.000000000000000E+000  0.000000000000000E+000   1.00000000000000             
    6    6                                                                      
   3.77500000000000        1.00000000000000       0.000000000000000E+000        
  0.000000000000000E+000  0.000000000000000E+000  0.000000000000000E+000        
  0.000000000000000E+000                                                        
   1.30000000000000       0.000000000000000E+000   1.00000000000000             
  0.000000000000000E+000  0.000000000000000E+000  0.000000000000000E+000        
  0.000000000000000E+000                                                        
  0.444000000000000       0.000000000000000E+000  0.000000000000000E+000        
   1.00000000000000       0.000000000000000E+000  0.000000000000000E+000        
  0.000000000000000E+000                                                        
   14.9270000000000       0.000000000000000E+000  0.000000000000000E+000        
  0.000000000000000E+000   1.00000000000000       0.000000000000000E+000        
  0.000000000000000E+000                                                        
   57.5440000000000       0.000000000000000E+000  0.000000000000000E+000        
  0.000000000000000E+000  0.000000000000000E+000   1.00000000000000             
  0.000000000000000E+000                                                        
  0.154000000000000       0.000000000000000E+000  0.000000000000000E+000        
  0.000000000000000E+000  0.000000000000000E+000  0.000000000000000E+000        
   1.00000000000000                                                             
    4    4                                                                      
   2.66600000000000        1.00000000000000       0.000000000000000E+000        
  0.000000000000000E+000  0.000000000000000E+000                                
  0.859000000000000       0.000000000000000E+000   1.00000000000000             
  0.000000000000000E+000  0.000000000000000E+000                                
   26.4830000000000       0.000000000000000E+000  0.000000000000000E+000        
   1.00000000000000       0.000000000000000E+000                                
  0.324000000000000       0.000000000000000E+000  0.000000000000000E+000        
  0.000000000000000E+000   1.00000000000000                                     
    2    2                                                                      
   1.84600000000000        1.00000000000000       0.000000000000000E+000        
  0.714000000000000       0.000000000000000E+000   1.00000000000000             
FINISH                                                                          
 
********************************************************************************
 ONE- AND TWO-ELECTRON INTEGRALS OVER SYMMETRY-ADAPTED AOS ARE CALCULATED.

  SPHERICAL HARMONICS ARE USED.
  
  INTEGRALS LESS THAN  0.10E-13 ARE NEGLECTED.

  NUCLEAR REPULSION ENERGY :   22.7350161481 A.U.
  @MOLECU-I, ONE ELECTRON INTEGRALS (CPU/WALL):        0.06/       0.08 SECONDS.
  @TWOEL-I,    4601674 INTEGRALS OF SYMMETRY TYPE  I I I I
  @TWOEL-I,   19745308 INTEGRALS OF SYMMETRY TYPE  I J I J
  @TWOEL-I,   10405790 INTEGRALS OF SYMMETRY TYPE  I I J J
  @TWOEL-I,   14608430 INTEGRALS OF SYMMETRY TYPE  I J K L
  @TWOEL-I, TOTAL NUMBER OF 2-E INTEGRALS   49361202.
  @MOLECU-I, TWO ELECTRON INTEGRALS (CPU/WALL):      249.87/      34.33 SECONDS.
 @CHECKOUT-I, Total execution time (CPU/WALL):      249.95/      34.44 seconds.

Running with 14 threads/proc

--executable xvmol finished with status     0 in       34.50 seconds (walltime).
 --invoking executable--
/nfs/workspaces/public/cfour_mpi/bin/xvmol2ja
 @GETMEM-I,  Allocated    3814 MB of main memory.
 @CHECKOUT-I, Total execution time (CPU/WALL):        0.17/       0.09 seconds.
--executable xvmol2ja finished with status     0 in        0.14 seconds (walltime).
 --invoking executable--
/nfs/workspaces/public/cfour_mpi/bin/xvprop
 @GETMEM-I,  Allocated    3814 MB of main memory.
   Property integrals will be calculated.
    --------------------------------------------------------------
                                   Property evaluated at 
    Property type                X             Y             Z
    --------------------------------------------------------------
    Dipole moment               ----          ----          ----  
    Quadrupole moment           ----          ----          ----  
    Octopole moment             ----          ----          ----  
    Relativisitic corr.         ----          ----          ----  
    Second moment            0.0000000     0.0000000     0.0000000
    Electron density         0.0000000     0.0000000     1.2667448
    Electron density         0.0000000     0.0000000    -0.8445359
    Field gradient           0.0000000     0.0000000     1.2667448
    Field gradient           0.0000000     0.0000000    -0.8445359
    Potential                0.0000000     0.0000000     1.2667448
    Potential                0.0000000     0.0000000    -0.8445359
    --------------------------------------------------------------
 @CHECKOUT-I, Total execution time (CPU/WALL):        1.55/       1.58 seconds.
--executable xvprop finished with status     0 in        1.61 seconds (walltime).
 --invoking executable--
/nfs/workspaces/public/cfour_mpi/bin/xvscf
  There are  218 functions in the AO basis.

  There are 4 irreducible representations.

       Irrep        # of functions
         1                 86
         2                 52
         3                 52
         4                 28


  Parameters for SCF calculation: 
        SCF reference function:  RHF  
  Maximum number of iterations:  150
     Full symmetry point group: CXv 
     Computational point group: C2v 
        Initial density matrix: MOREAD                 
     SCF convergence tolerance: 10**(-10)
  DIIS convergence acceleration:  ON
          Latest start for DIIS:   8
                     DIIS order:   6

  Memory information:    2523578 words required.
  Fock matrices are constructed from AO integral file.
 @GETMEM-I,  Allocated      19 MB of main memory.
  Initialization and symmetry analysis required      0.002 seconds.

  Adding electric field perturbation to one-electron Hamiltonian.
  Field direction     : Z
  Field strength      :  0.0002000 a.u.

  @INITGES-I, Occupancies from core Hamiltonian:

          Alpha population by irrep:   5    1    1    0
           Beta population by irrep:   5    1    1    0


 total no. of electrons in initial guess :  0.000000000000000E+000
  --------------------------------------------------------------------
  Iteration         Total Energy            Largest Density Difference
  --------------------------------------------------------------------
       0            22.734847311883382              0.0000000000D+00
   current occupation vector 
     5  1  1  0
     5  1  1  0
       1           -91.706215983298151              0.1878737607D+02
   current occupation vector 
     5  1  1  0
     5  1  1  0
       2           -96.206303774448699              0.2779245825D+02
   current occupation vector 
     5  1  1  0
     5  1  1  0
       3          -103.326060601966248              0.2777901629D+02
   current occupation vector 
     5  1  1  0
     5  1  1  0
       4          -100.448922861735866              0.7636534370D+01
   current occupation vector 
     5  1  1  0
     5  1  1  0
       5          -103.603489062636058              0.7617567408D+01
   current occupation vector 
     5  1  1  0
     5  1  1  0
       6          -100.686050347272641              0.5798934367D+01
   current occupation vector 
     5  1  1  0
     5  1  1  0
       7          -103.345124765494333              0.5556299162D+01
   current occupation vector 
     5  1  1  0
     5  1  1  0
       8          -100.397517039998263              0.5538926448D+01
   current occupation vector 
     5  1  1  0
     5  1  1  0
       9          -110.907514551245612              0.4139363144D+01
   current occupation vector 
     5  1  1  0
     5  1  1  0
      10          -112.341123005851898              0.9101984508D+00
   current occupation vector 
     5  1  1  0
     5  1  1  0
      11          -112.778059427730057              0.4839736400D+00
   current occupation vector 
     5  1  1  0
     5  1  1  0
      12          -112.790019480317369              0.9842350797D-01
   current occupation vector 
     5  1  1  0
     5  1  1  0
      13          -112.790389891734179              0.2125169897D-01
   current occupation vector 
     5  1  1  0
     5  1  1  0
      14          -112.790460534335267              0.1290281184D-01
   current occupation vector 
     5  1  1  0
     5  1  1  0
      15          -112.790462949737844              0.3101494047D-02
   current occupation vector 
     5  1  1  0
     5  1  1  0
      16          -112.790462977844783              0.2706366804D-03
   current occupation vector 
     5  1  1  0
     5  1  1  0
      17          -112.790462978513432              0.3222130671D-04
   current occupation vector 
     5  1  1  0
     5  1  1  0
      18          -112.790462978534038              0.5089953908D-05
   current occupation vector 
     5  1  1  0
     5  1  1  0
      19          -112.790462978534578              0.9933869782D-06
   current occupation vector 
     5  1  1  0
     5  1  1  0
      20          -112.790462978533355              0.1508052925D-06
   current occupation vector 
     5  1  1  0
     5  1  1  0
      21          -112.790462978535658              0.2882467287D-07
   current occupation vector 
     5  1  1  0
     5  1  1  0
      22          -112.790462978534947              0.6701236677D-08
   current occupation vector 
     5  1  1  0
     5  1  1  0
      23          -112.790462978535032              0.4256563546D-08
   current occupation vector 
     5  1  1  0
     5  1  1  0

  SCF has converged.

 Density matrix saved to file den.dat
 total electron number:   14.0000000000000     
     E(SCF)=      -112.790462978534606              0.9162082204D-10

  Eigenvector printing suppressed.

 @PUTMOS-I, Writing converged MOs to NEWMOS. 
 @PUTMOS-I, Symmetry   1 Full Blocks 21 Partial Blocksize   2
 @PUTMOS-I, Symmetry   2 Full Blocks 13 Partial Blocksize   0
 @PUTMOS-I, Symmetry   3 Full Blocks 13 Partial Blocksize   0
 @PUTMOS-I, Symmetry   4 Full Blocks  7 Partial Blocksize   0
 @PUTFOCK-I, Writing converged Fock matrix to NEWFOCK. 
 @PUTFOCK-I, Symmetry   1 Full Blocks 21 Partial Blocksize   2
 @PUTFOCK-I, Symmetry   2 Full Blocks 13 Partial Blocksize   0
 @PUTFOCK-I, Symmetry   3 Full Blocks 13 Partial Blocksize   0
 @PUTFOCK-I, Symmetry   4 Full Blocks  7 Partial Blocksize   0


 
  ORBITAL EIGENVALUES (ALPHA)  (1H = 27.2113834 eV)

       MO #        E(hartree)               E(eV)           FULLSYM    COMPSYM
       ----   --------------------   --------------------   -------   ---------
    1     1         -20.6647017729        -562.3151227902     SG+        A1 (1)
    2     2         -11.3552514300        -308.9921002646     SG+        A1 (1)
    3     3          -1.5293588625         -41.6159703649     SG+        A1 (1)
    4     4          -0.8056205391         -21.9220493650     SG+        A1 (1)
    5    87          -0.6451863850         -17.5564140870      PI        B1 (2)
    6   139          -0.6451863850         -17.5564140870      PI        B2 (3)
    7     5          -0.5534059236         -15.0589407634     SG+        A1 (1)
  +++++++++++++++++++++++++++++++++++++++++++++++++++++++++++++++++++++++++++++
    8     6           0.0594527706           1.6177921349     SG+        A1 (1)
    9    88           0.0635594038           1.7295393052      PI        B1 (2)
   10   140           0.0635594038           1.7295393052      PI        B2 (3)
   11     7           0.0758994681           2.0653295268     SG+        A1 (1)
   12    89           0.1435745442           3.9068619681      PI        B1 (2)
   13   141           0.1435745442           3.9068619681      PI        B2 (3)
   14     8           0.1559438513           4.2434479256     SG+        A1 (1)
   15    90           0.1672977060           4.5524020208      PI        B1 (2)
   16   142           0.1672977060           4.5524020208      PI        B2 (3)
   17     9           0.2278490972           6.2000891415     SG+        A1 (1)
   18   191           0.2281848201           6.2092246262      DE        A2 (4)
   19    10           0.2281848201           6.2092246262      DE        A1 (1)
   20    11           0.3016795196           8.2091170708     SG+        A1 (1)
   21    91           0.3224047833           8.7730801690      PI        B1 (2)
   22   143           0.3224047833           8.7730801690      PI        B2 (3)
   23    12           0.3926534368          10.6846432110     SG+        A1 (1)
   24   144           0.3960370718          10.7767166009      PI        B2 (3)
   25    92           0.3960370718          10.7767166009      PI        B1 (2)
   26    13           0.5080599003          13.8250127372     SG+        A1 (1)
   27    14           0.5337473923          14.5240049308      DE        A1 (1)
   28   192           0.5337473923          14.5240049308      DE        A2 (4)
   29    93           0.6224961813          16.9389822532      PI        B1 (2)
   30   145           0.6224961813          16.9389822532      PI        B2 (3)
   31    15           0.6479114141          17.6305658980     SG+        A1 (1)
   32   146           0.7492191191          20.3872887002      PH        B2 (3)
   33    94           0.7492191191          20.3872887002      PH        B1 (2)
   34   193           0.7692419681          20.9321381224      DE        A2 (4)
   35    16           0.7692419681          20.9321381224      DE        A1 (1)
   36    17           0.7802751910          21.2323673790     SG+        A1 (1)
   37   147           0.8252055974          22.4549858942      PI        B2 (3)
   38    95           0.8252055974          22.4549858942      PI        B1 (2)
   39    18           0.8730257607          23.7562386935     SG+        A1 (1)
   40   148           0.8802553797          23.9529666281      PI        B2 (3)
   41    96           0.8802553797          23.9529666281      PI        B1 (2)
   42    19           0.8920637967          24.2742899895      DE        A1 (1)
   43   194           0.8920637967          24.2742899895      DE        A2 (4)
   44    20           0.9162100590          24.9313431909     SG+        A1 (1)
   45   149           1.0797803057          29.3823158864      PI        B2 (3)
   46    97           1.0797803057          29.3823158864      PI        B1 (2)
   47    21           1.2047277315          32.7823081932     SG+        A1 (1)
   48    98           1.4482768556          39.4096167871      PH        B1 (2)
   49   150           1.4482768556          39.4096167871      PH        B2 (3)
   50    22           1.4791345974          40.2492986296     SG+        A1 (1)
   51    23           1.5157799789          41.2464701549      DE        A1 (1)
   52   195           1.5157799789          41.2464701549      DE        A2 (4)
   53   151           1.5518029203          42.2267042246      PI        B2 (3)
   54    99           1.5518029203          42.2267042246      PI        B1 (2)
   55    24           1.6665754994          45.3498248787     SG+        A1 (1)
   56    25           1.7674014128          48.0934374647     SG+        A1 (1)
   57   196           1.7702825393          48.1718369044      DE        A2 (4)
   58    26           1.7702825393          48.1718369044      DE        A1 (1)
   59   152           1.8142348132          49.3678390785      PI        B2 (3)
   60   100           1.8142348132          49.3678390785      PI        B1 (2)
   61   153           1.9641034280          53.4459714174      PI        B2 (3)
   62   101           1.9641034280          53.4459714175      PI        B1 (2)
   63   197           2.1065847840          57.3230862232      PI        A2 (4)
   64    27           2.1065847840          57.3230862232      PI        A1 (1)
   65    28           2.1424640135          58.2994096908     SG+        A1 (1)
   66   198           2.1985192341          59.8247497921      DE        A2 (4)
   67    29           2.1985192341          59.8247497921      DE        A1 (1)
   68   102           2.2530556392          61.3087608191      PH        B1 (2)
   69   154           2.2530556392          61.3087608191      PH        B2 (3)
   70    30           2.3170992135          63.0514750746     SG+        A1 (1)
   71   103           2.3275913518          63.3369806724      PI        B1 (2)
   72   155           2.3275913518          63.3369806724      PI        B2 (3)
   73   199           2.3664730903          64.3950065652      DE        A2 (4)
   74    31           2.3664730903          64.3950065652      DE        A1 (1)
   75   156           2.3674979523          64.4228944786      PH        B2 (3)
   76   104           2.3674979523          64.4228944786      PH        B1 (2)
   77    32           2.4895108085          67.7430330898     SG+        A1 (1)
   78   157           2.6001539153          70.7537850870      PI        B2 (3)
   79   105           2.6001539153          70.7537850870      PI        B1 (2)
   80   158           2.8431241876          77.3653423234      PI        B2 (3)
   81   106           2.8431241876          77.3653423234      PI        B1 (2)
   82    33           2.9579413637          80.4896765225     SG+        A1 (1)
   83   200           3.0187425808          82.1441617515      DE        A2 (4)
   84    34           3.0187425808          82.1441617517      DE        A1 (1)
   85    35           3.4715858883          94.4666546125     SG+        A1 (1)
   86    36           3.7257676960         101.3832932362      PI        A1 (1)
   87   201           3.7257676960         101.3832932362      PI        A2 (4)
   88   159           3.7539680201         102.1506630661      PI        B2 (3)
   89   107           3.7539680201         102.1506630662      PI        B1 (2)
   90    37           3.9511443736         107.5161044181     SG+        A1 (1)
   91   160           4.0816557264         111.0674988769      PH        B2 (3)
   92   108           4.0816557264         111.0674988769      PH        B1 (2)
   93    38           4.1758906180         113.6317606440      DE        A1 (1)
   94   202           4.1758906180         113.6317606440      DE        A2 (4)
   95   161           4.2108075630         114.5818990203      PI        B2 (3)
   96   109           4.2108075630         114.5818990203      PI        B1 (2)
   97    39           4.2756185163         116.3454947197     SG+        A1 (1)
   98   110           4.2962492181         116.9068846548      PH        B1 (2)
   99   162           4.2962492181         116.9068846548      PH        B2 (3)
  100   203           4.3867307107         119.3690112417      DE        A2 (4)
  101    40           4.3867307107         119.3690112417      DE        A1 (1)
  102    41           4.5534994615         123.9070196595     SG+        A1 (1)
  103   163           4.7630243549         129.6084818644      PI        B2 (3)
  104   111           4.7630243549         129.6084818645      PI        B1 (2)
  105    42           5.0010425509         136.0852862516     SG+        A1 (1)
  106   112           5.1472947997         140.0650122665      PI        B1 (2)
  107   164           5.1472947997         140.0650122665      PI        B2 (3)
  108   204           5.1588375693         140.3791069973      DE        A2 (4)
  109    43           5.1588375693         140.3791069975      DE        A1 (1)
  110   165           5.8292865110         158.6229501986      PI        B2 (3)
  111   113           5.8292865110         158.6229501986      PI        B1 (2)
  112    44           5.8936446882         160.3742252333     SG+        A1 (1)
  113   205           5.9028946995         160.6259308375      PI        A2 (4)
  114    45           5.9028946995         160.6259308375      PI        A1 (1)
  115   114           6.1477043157         167.2875391655      PH        B1 (2)
  116   166           6.1477043157         167.2875391655      PH        B2 (3)
  117    46           6.2307942403         169.5485309605     SG+        A1 (1)
  118   206           6.3093521664         171.6862008050      DE        A2 (4)
  119    47           6.3093521664         171.6862008050      DE        A1 (1)
  120   167           6.3319139112         172.3001370945      PI        B2 (3)
  121   115           6.3319139112         172.3001370945      PI        B1 (2)
  122   116           6.4459345015         175.4027950916      PH        B1 (2)
  123   168           6.4459345015         175.4027950916      PH        B2 (3)
  124   207           6.5970487110         179.5148217835      DE        A2 (4)
  125    48           6.5970487110         179.5148217837      DE        A1 (1)
  126    49           7.0764248917         192.5593108298     SG+        A1 (1)
  127   208           7.3944751705         201.2138989050      DE        A2 (4)
  128    50           7.3944751705         201.2138989051      DE        A1 (1)
  129   169           7.5213304264         204.6658059109      PI        B2 (3)
  130   117           7.5213304264         204.6658059110      PI        B1 (2)
  131    51           7.8173280631         212.7203110897     SG+        A1 (1)
  132    52           8.2904184513         225.5937550256     SG+        A1 (1)
  133   170           8.5250285508         231.9778203913      PI        B2 (3)
  134   118           8.5250285508         231.9778203914      PI        B1 (2)
  135   119          10.1227741803         275.4546892929      PI        B1 (2)
  136   171          10.1227741803         275.4546892929      PI        B2 (3)
  137    53          10.4845497867         285.2991040226     SG+        A1 (1)
  138   209          10.6014859301         288.4810982539      PI        A2 (4)
  139    54          10.6014859301         288.4810982539      PI        A1 (1)
  140   120          10.8905470544         296.3468513331      PH        B1 (2)
  141   172          10.8905470544         296.3468513331      PH        B2 (3)
  142   210          11.1463543780         303.3077224909      DE        A2 (4)
  143    55          11.1463543780         303.3077224909      DE        A1 (1)
  144    56          11.1718961325         304.0027489676     SG+        A1 (1)
  145   173          11.3797193302         309.6579056775      PI        B2 (3)
  146   121          11.3797193302         309.6579056775      PI        B1 (2)
  147    57          11.6795954597         317.8179500120     SG+        A1 (1)
  148   122          11.8551742965         322.5956930557      PH        B1 (2)
  149   174          11.8551742965         322.5956930557      PH        B2 (3)
  150   211          12.3046426390         334.8263484485      DE        A2 (4)
  151    58          12.3046426390         334.8263484485      DE        A1 (1)
  152   175          12.6678544812         344.7098451428      PI        B2 (3)
  153   123          12.6678544812         344.7098451428      PI        B1 (2)
  154   212          12.8872900470         350.6809904565      DE        A2 (4)
  155    59          12.8872900470         350.6809904566      DE        A1 (1)
  156    60          13.3637086848         363.6450006678     SG+        A1 (1)
  157   124          14.2495472260         387.7498928423      PI        B1 (2)
  158   176          14.2495472260         387.7498928424      PI        B2 (3)
  159    61          15.6585944073         426.0920159217     SG+        A1 (1)
  160    62          18.0602181333         491.4435199119     SG+        A1 (1)
  161   177          19.4376095177         528.9242449669      PI        B2 (3)
  162   125          19.4376095177         528.9242449670      PI        B1 (2)
  163    63          20.7181292533         563.7689584428     SG+        A1 (1)
  164   213          26.5511270345         722.4928974383      DE        A2 (4)
  165    64          26.5511270345         722.4928974384      DE        A1 (1)
  166   178          27.0563925312         736.2418705875      PI        B2 (3)
  167   126          27.0563925312         736.2418705875      PI        B1 (2)
  168    65          28.2950045154         769.9462161741     SG+        A1 (1)
  169   127          33.8031039893         919.8292227620      PI        B1 (2)
  170   179          33.8031039893         919.8292227624      PI        B2 (3)
  171    66          35.0500081016         953.7592086270     SG+        A1 (1)
  172    67          36.9015700031        1004.1427694156     SG+        A1 (1)
  173   214          47.1270529273        1282.3923057177      DE        A2 (4)
  174    68          47.1270529273        1282.3923057178      DE        A1 (1)
  175   128          47.7592418742        1299.5950415329      PI        B1 (2)
  176   180          47.7592418742        1299.5950415329      PI        B2 (3)
  177    69          48.6191807217        1322.9951672119     SG+        A1 (1)
  178    70          64.2597244592        1748.5959994369     SG+        A1 (1)
  179   181          66.8779554355        1819.8416863635      PI        B2 (3)
  180   129          66.8779554355        1819.8416863636      PI        B1 (2)
  181    71          67.8607070221        1846.5837165730     SG+        A1 (1)
  182   182          98.6826213370        2685.2906441186      PH        B2 (3)
  183   130          98.6826213370        2685.2906441186      PH        B1 (2)
  184    72          98.7065789923        2685.9425650614      DE        A1 (1)
  185   215          98.7065789923        2685.9425650614      DE        A2 (4)
  186   131          98.7775962348        2687.8750424753      PI        B1 (2)
  187   183          98.7775962348        2687.8750424753      PI        B2 (3)
  188    73          98.7888424862        2688.1810685335     SG+        A1 (1)
  189   132         103.2849147140        2810.5254137193      PH        B1 (2)
  190   184         103.2849147140        2810.5254137193      PH        B2 (3)
  191   216         103.3374319491        2811.9544803395      DE        A2 (4)
  192    74         103.3374319493        2811.9544803436      DE        A1 (1)
  193   185         103.3653566706        2812.7143506413      PI        B2 (3)
  194   133         103.3653566706        2812.7143506413      PI        B1 (2)
  195    75         103.4316227789        2814.5175431215     SG+        A1 (1)
  196    76         115.2005075143        3134.7651778471      DE        A1 (1)
  197   217         115.2005075143        3134.7651778471      DE        A2 (4)
  198   134         115.4468062473        3141.4673071021      PI        B1 (2)
  199   186         115.4468062473        3141.4673071021      PI        B2 (3)
  200    77         116.0713568602        3158.4621932801     SG+        A1 (1)
  201   135         117.0507202510        3185.1120259972      PI        B1 (2)
  202   187         117.0507202511        3185.1120259977      PI        B2 (3)
  203    78         118.1330671465        3214.5641823403     SG+        A1 (1)
  204    79         122.9647006343        3346.0396136252     SG+        A1 (1)
  205   218         198.5827231382        5403.7106159286      DE        A2 (4)
  206    80         198.5827231382        5403.7106159287      DE        A1 (1)
  207   188         198.9259009717        5413.0489595319      PI        B2 (3)
  208   136         198.9259009717        5413.0489595322      PI        B1 (2)
  209    81         199.3585331279        5424.8214790046     SG+        A1 (1)
  210    82         216.7359169820        5897.6841335488     SG+        A1 (1)
  211   137         225.2878714240        6130.3946446878      PI        B1 (2)
  212   189         225.2878714240        6130.3946446878      PI        B2 (3)
  213    83         226.0908803239        6152.2456277374     SG+        A1 (1)
  214   138         395.5083976594       10762.3306466301      PI        B1 (2)
  215   190         395.5083976595       10762.3306466310      PI        B2 (3)
  216    84         396.3948935879       10786.4534272233     SG+        A1 (1)
  217    85         509.4866331752       13863.8361125055     SG+        A1 (1)
  218    86         895.5685608194       24369.6594694440     SG+        A1 (1)


  VSCF finished.

 @CHECKOUT-I, Total execution time (CPU/WALL):       44.36/      10.34 seconds.
--executable xvscf finished with status     0 in       10.38 seconds (walltime).
 --invoking executable--
/nfs/workspaces/public/cfour_mpi/bin/xvtran
 @GETMEM-I,  Allocated    3814 MB of main memory.
  Full RHF integral transformation
  Transformation of IIII integrals :
  1 pass through the AO integral file was required.
     4601674 AO integrals were read.
     8818524 MO integrals were written to HF2.
  Transformation of IIJJ integrals :
  1 pass through the AO integral file was required.
    10405790 AO integrals were read.
    14632996 MO integrals were written to HF2.
  Transformation of IJIJ integrals :
  1 pass through the AO integral file was required.
    19745308 AO integrals were read.
    27510093 MO integrals were written to HF2.
  Transformation of IJKL integrals :
  1 pass through the AO integral file was required.
    14608430 AO integrals were read.
    18572338 MO integrals were written to HF2.
  Summary of active molecular orbitals: 
------------------------------------------------------------------------
 
  Index      Eigenvalue    Symmetry    Index      Eigenvalue    Symmetry
------------------------------------------------------------------------
     1       -20.6647018        1       110         4.2108076        2
     2       -11.3552514        1       111         4.2962492        2
     3        -1.5293589        1       112         4.7630244        2
     4        -0.8056205        1       113         5.1472948        2
     5        -0.5534059        1       114         5.8292865        2
     6        -0.6451864        2       115         6.1477043        2
     7        -0.6451864        3       116         6.3319139        2
     8         0.0594528        1       117         6.4459345        2
     9         0.0758995        1       118         7.5213304        2
    10         0.1559439        1       119         8.5250286        2
    11         0.2278491        1       120        10.1227742        2
    12         0.2281848        1       121        10.8905471        2
    13         0.3016795        1       122        11.3797193        2
    14         0.3926534        1       123        11.8551743        2
    15         0.5080599        1       124        12.6678545        2
    16         0.5337474        1       125        14.2495472        2
    17         0.6479114        1       126        19.4376095        2
    18         0.7692420        1       127        27.0563925        2
    19         0.7802752        1       128        33.8031040        2
    20         0.8730258        1       129        47.7592419        2
    21         0.8920638        1       130        66.8779554        2
    22         0.9162101        1       131        98.6826213        2
    23         1.2047277        1       132        98.7775962        2
    24         1.4791346        1       133       103.2849147        2
    25         1.5157800        1       134       103.3653567        2
    26         1.6665755        1       135       115.4468062        2
    27         1.7674014        1       136       117.0507203        2
    28         1.7702825        1       137       198.9259010        2
    29         2.1065848        1       138       225.2878714        2
    30         2.1424640        1       139       395.5083977        2
    31         2.1985192        1       140         0.0635594        3
    32         2.3170992        1       141         0.1435745        3
    33         2.3664731        1       142         0.1672977        3
    34         2.4895108        1       143         0.3224048        3
    35         2.9579414        1       144         0.3960371        3
    36         3.0187426        1       145         0.6224962        3
    37         3.4715859        1       146         0.7492191        3
    38         3.7257677        1       147         0.8252056        3
    39         3.9511444        1       148         0.8802554        3
    40         4.1758906        1       149         1.0797803        3
    41         4.2756185        1       150         1.4482769        3
    42         4.3867307        1       151         1.5518029        3
    43         4.5534995        1       152         1.8142348        3
    44         5.0010426        1       153         1.9641034        3
    45         5.1588376        1       154         2.2530556        3
    46         5.8936447        1       155         2.3275914        3
    47         5.9028947        1       156         2.3674980        3
    48         6.2307942        1       157         2.6001539        3
    49         6.3093522        1       158         2.8431242        3
    50         6.5970487        1       159         3.7539680        3
    51         7.0764249        1       160         4.0816557        3
    52         7.3944752        1       161         4.2108076        3
    53         7.8173281        1       162         4.2962492        3
    54         8.2904185        1       163         4.7630244        3
    55        10.4845498        1       164         5.1472948        3
    56        10.6014859        1       165         5.8292865        3
    57        11.1463544        1       166         6.1477043        3
    58        11.1718961        1       167         6.3319139        3
    59        11.6795955        1       168         6.4459345        3
    60        12.3046426        1       169         7.5213304        3
    61        12.8872900        1       170         8.5250286        3
    62        13.3637087        1       171        10.1227742        3
    63        15.6585944        1       172        10.8905471        3
    64        18.0602181        1       173        11.3797193        3
    65        20.7181293        1       174        11.8551743        3
    66        26.5511270        1       175        12.6678545        3
    67        28.2950045        1       176        14.2495472        3
    68        35.0500081        1       177        19.4376095        3
    69        36.9015700        1       178        27.0563925        3
    70        47.1270529        1       179        33.8031040        3
    71        48.6191807        1       180        47.7592419        3
    72        64.2597245        1       181        66.8779554        3
    73        67.8607070        1       182        98.6826213        3
    74        98.7065790        1       183        98.7775962        3
    75        98.7888425        1       184       103.2849147        3
    76       103.3374319        1       185       103.3653567        3
    77       103.4316228        1       186       115.4468062        3
    78       115.2005075        1       187       117.0507203        3
    79       116.0713569        1       188       198.9259010        3
    80       118.1330671        1       189       225.2878714        3
    81       122.9647006        1       190       395.5083977        3
    82       198.5827231        1       191         0.2281848        4
    83       199.3585331        1       192         0.5337474        4
    84       216.7359170        1       193         0.7692420        4
    85       226.0908803        1       194         0.8920638        4
    86       396.3948936        1       195         1.5157800        4
    87       509.4866332        1       196         1.7702825        4
    88       895.5685608        1       197         2.1065848        4
    89         0.0635594        2       198         2.1985192        4
    90         0.1435745        2       199         2.3664731        4
    91         0.1672977        2       200         3.0187426        4
    92         0.3224048        2       201         3.7257677        4
    93         0.3960371        2       202         4.1758906        4
    94         0.6224962        2       203         4.3867307        4
    95         0.7492191        2       204         5.1588376        4
    96         0.8252056        2       205         5.9028947        4
    97         0.8802554        2       206         6.3093522        4
    98         1.0797803        2       207         6.5970487        4
    99         1.4482769        2       208         7.3944752        4
   100         1.5518029        2       209        10.6014859        4
   101         1.8142348        2       210        11.1463544        4
   102         1.9641034        2       211        12.3046426        4
   103         2.2530556        2       212        12.8872900        4
   104         2.3275914        2       213        26.5511270        4
   105         2.3674980        2       214        47.1270529        4
   106         2.6001539        2       215        98.7065790        4
   107         2.8431242        2       216       103.3374319        4
   108         3.7539680        2       217       115.2005075        4
   109         4.0816557        2       218       198.5827231        4
------------------------------------------------------------------------
  -20.6647017729434       -11.3552514299823       -1.52935886254455     
 -0.805620539123601      -0.553405923617207      -0.645186385009540     
 -0.645186385009513       5.945277059687198E-002  7.589946811888873E-002
  0.155943851264523       0.227849097209114       0.228184820115060     
  0.301679519565113       0.392653436761534       0.508059900299906     
  0.533747392306319       0.647911414087802       0.769241968139740     
  0.780275190969628       0.873025760736323       0.892063796708771     
  0.916210059020175        1.20472773145458        1.47913459738194     
   1.51577997886483        1.66657549938246        1.76740141277436     
   1.77028253934454        2.10658478404225        2.14246401345237     
   2.19851923412554        2.31709921350960        2.36647309027334     
   2.48951080854680        2.95794136370460        3.01874258078555     
   3.47158588829627        3.72576769603526        3.95114437357353     
   4.17589061804178        4.27561851631956        4.38673071071240     
   4.55349946153286        5.00104255087520        5.15883756933674     
   5.89364468817628        5.90289469948356        6.23079424034346     
   6.30935216638138        6.59704871100833        7.07642489171609     
   7.39447517045726        7.81732806314242        8.29041845133258     
   10.4845497867110        10.6014859301085        11.1463543779581     
   11.1718961325423        11.6795954597447        12.3046426389512     
   12.8872900470240        13.3637086847914        15.6585944072852     
   18.0602181332651        20.7181292533190        26.5511270345187     
   28.2950045154306        35.0500081016464        36.9015700030749     
   47.1270529273355        48.6191807216941        64.2597244591741     
   67.8607070220833        98.7065789922839        98.7888424861733     
   103.337431949292        103.431622778926        115.200507514333     
   116.071356860162        118.133067146463        122.964700634264     
   198.582723138167        199.358533127889        216.735916982040     
   226.090880323908        396.394893587926        509.486633175197     
[...]
 Convergence information after     8 iterations: 
 Largest element of residual vector : -0.24691371E-04.
 Largest element of DIIS residual   :  0.21572044E-04.
 Convergence information after     9 iterations: 
 Largest element of residual vector :  0.83153692E-05.
 Largest element of DIIS residual   :  0.46381278E-05.
 Convergence information after    10 iterations: 
 Largest element of residual vector :  0.45602948E-05.
 Largest element of DIIS residual   :  0.30294533E-05.
 Convergence information after    11 iterations: 
 Largest element of residual vector :  0.17052847E-05.
 Largest element of DIIS residual   :  0.69340212E-06.
 Convergence information after    12 iterations: 
 Largest element of residual vector :  0.69217303E-06.
 Largest element of DIIS residual   :  0.36857241E-06.
 Convergence information after    13 iterations: 
 Largest element of residual vector :  0.27467862E-06.
 Largest element of DIIS residual   :  0.20705945E-06.
 Convergence information after    14 iterations: 
 Largest element of residual vector :  0.15669160E-06.
 Largest element of DIIS residual   :  0.85348928E-07.
 Perturbed amplitude equations converged in    14 iterations.
  Dominant contributions to perturbed wavefunction:
    7    7  141   27   0.1988182032 ABAB
    7    7   27  141   0.1988182032 ABAB
    7    7  141   37   0.1912799198 ABAB
    7    7   37  141   0.1912799198 ABAB
    7    7  142   27   0.1764620747 ABAB
    7    7   27  142   0.1764620747 ABAB
    7    7  141   55   0.1717069066 ABAB
    7    7   55  141   0.1717069066 ABAB
    7    7  142   37   0.1677876172 ABAB
    7    7   37  142   0.1677876172 ABAB
    5    5  141   44   0.1425175703 ABAB
    5    5   44  141   0.1425175703 ABAB
    7    7  141   63   0.1342632666 ABAB
    7    7   63  141   0.1342632666 ABAB
    7    7  141   44   0.1327757906 ABAB
    7    7   44  141   0.1327757906 ABAB
    7    7  141   53  -0.1314669112 ABAB
    7    7   53  141  -0.1314669112 ABAB
    7    6   27   90   0.1309087016 ABAB
    6    7   90   27   0.1309087016 ABAB
  norm of converged amps    2.48126645489492     
 Starting iterative solution of the perturbed Lambda equations.
 The DIIS procedure is used to accelerate convergence.
 Convergence criterion is 10**(-7).
 Maximum number of iterations is 100.
 Convergence information after     1 iterations: 
 Largest element of residual vector : -0.67967464E-01.
 Largest element of DIIS residual   : -0.67967464E-01.
 Convergence information after     2 iterations: 
 Largest element of residual vector :  0.74336481E-02.
 Largest element of DIIS residual   :  0.52066956E-02.
 Convergence information after     3 iterations: 
 Largest element of residual vector : -0.41459710E-02.
 Largest element of DIIS residual   : -0.35885305E-02.
 Convergence information after     4 iterations: 
 Largest element of residual vector : -0.25566719E-02.
 Largest element of DIIS residual   : -0.20128388E-02.
 Convergence information after     5 iterations: 
 Largest element of residual vector : -0.14782798E-02.
 Largest element of DIIS residual   : -0.67856287E-03.
 Convergence information after     6 iterations: 
 Largest element of residual vector : -0.47697240E-03.
 Largest element of DIIS residual   :  0.11415163E-03.
 Convergence information after     7 iterations: 
 Largest element of residual vector : -0.89759743E-04.
 Largest element of DIIS residual   : -0.43866057E-04.
 Convergence information after     8 iterations: 
 Largest element of residual vector : -0.18667963E-04.
 Largest element of DIIS residual   :  0.17704922E-04.
 Convergence information after     9 iterations: 
 Largest element of residual vector :  0.68903002E-05.
 Largest element of DIIS residual   :  0.38823003E-05.
 Convergence information after    10 iterations: 
 Largest element of residual vector :  0.37150077E-05.
 Largest element of DIIS residual   :  0.25741866E-05.
 Convergence information after    11 iterations: 
 Largest element of residual vector :  0.13598632E-05.
 Largest element of DIIS residual   :  0.62431620E-06.
 Convergence information after    12 iterations: 
 Largest element of residual vector :  0.61854099E-06.
 Largest element of DIIS residual   :  0.41480545E-06.
 Convergence information after    13 iterations: 
 Largest element of residual vector :  0.30474714E-06.
 Largest element of DIIS residual   :  0.24521870E-06.
 Convergence information after    14 iterations: 
 Largest element of residual vector :  0.18424320E-06.
 Largest element of DIIS residual   :  0.97201501E-07.
 Perturbed Lambda equations converged in    14 iterations.
  Dominant contributions to perturbed wavefunction:
    7    7  141   27   0.1875015174 ABAB
    7    7   27  141   0.1875015174 ABAB
    7    7  141   37   0.1813075261 ABAB
    7    7   37  141   0.1813075261 ABAB
    7    7  142   27   0.1681421788 ABAB
    7    7   27  142   0.1681421788 ABAB
    7    7  141   55   0.1607395754 ABAB
    7    7   55  141   0.1607395754 ABAB
    7    7  142   37   0.1605428710 ABAB
    7    7   37  142   0.1605428710 ABAB
    5    5  141   44   0.1367726840 ABAB
    5    5   44  141   0.1367726840 ABAB
    7    7  141   63   0.1271163322 ABAB
    7    7   63  141   0.1271163322 ABAB
    7    7  141   53  -0.1238624585 ABAB
    7    7   53  141  -0.1238624585 ABAB
    7    7  141   44   0.1230648655 ABAB
    7    7   44  141   0.1230648655 ABAB
    7    6   27   90   0.1217054395 ABAB
    6    7   90   27   0.1217054395 ABAB
        The DBOC first-order density matrix is being calculated 
             (Symmetry block 3, perturbation   2)
 term   7.22967632641355     
 final tnorm  0.888840112157523     
  norm contr. I: |<0|L dT/dx|0>|^2   0.000000000000000E+000
  norm contr. II: <0|[nabla(1+L)e-T][nabla e^T]|0>   7.22967632641355     
  total norm contribution   7.22967632641355     
 oo  1.077854164801156E-002
 vv  -48.2326391216550     
 vo  3.835005318394464E-002
  Correlated perturbed 1-el contribution to DBOC  -48.1835105268231       cm**-1
  SUM_I |dc_I/dx|^2 contribution to DBOC   24.1861502274723       cm**-1
 
 
  The total diagonal Born-Oppenheimer correction (DBOC) is:      0.0038719914 a.u.
  The total diagonal Born-Oppenheimer correction (DBOC) is:        849.803885 cm-1
 
 Total CC energy including DBOC  -113.281927426647     
 First-order density matrix is being calculated  (Symmetry block 3, perturbation   2)
 Calculation of the contributions of <pq||rs> to dI(i,j)/dx required   3.3 seconds.
 Calculation of the contributions of <pq||rs> to dI(a,b)/dx required  16.2 seconds.
 Calculation of the contributions of <pq||rs> to dI(i,a)/dx required   9.5 seconds.
 First-order Z-vector equations are solved for 1 perturbation.
 Convergence reached after  18 iterations.
        U*G(pq,rs) contribution is being calculated
             (Symmetry block 3, perturbation   2)

 CCSD contribution to force constants 

        0.0000000000        0.0000000000        0.0000000000
        0.0000000000        0.0000000000        0.0000000000
        0.0000000000        0.0000000000        0.0000000000
        0.0000000000        0.0000000000        0.0000000000
        0.0000000000        0.0000000000        0.0000000000
        0.0000000000        0.0000000000        0.0000000000
        0.0000000000        0.0000000000        0.0000000000
        0.0000000000        0.0000000000        0.0000000000
        0.0000000000        0.0000000000        0.0000000000
        0.0000000000        0.0000000000        0.0000000000
        0.0000000000        0.0000000000        0.0000000000
        0.0000000000       -2.5988156065        2.5988156065

 CCSD contribution to dipole derivatives 

        0.0000000000        0.0000000000        0.0000000000
        0.0000000000        0.0000000000        0.0000000000
        0.0000000000        0.0000000000        0.0000000000
        0.0000000000        0.0000000000       -0.0439941467
        0.0000000000        0.0000000000        0.0000000000
        0.0000000000        0.0000000000        0.0000000000
 @CHECKOUT-I, Total execution time (CPU/WALL):     1164.90/     484.81 seconds.
--executable xsdcc finished with status     0 in      485.06 seconds (walltime).
 --invoking executable--
/nfs/workspaces/public/cfour_mpi/bin/xanti
 @GETMEM-I,  Allocated    3814 MB of main memory.
 CCSD MO derivative gammas will be sorted to Mulliken order.
 @CHECKOUT-I, Total execution time (CPU/WALL):       13.64/      25.94 seconds.
--executable xanti finished with status     0 in       26.08 seconds (walltime).
 --invoking executable--
/nfs/workspaces/public/cfour_mpi/bin/xbcktrn
 @GETMEM-I,  Allocated    3814 MB of main memory.
 CCSD MO derivative gammas will be transformed to the AO basis.
 @CHECKOUT-I, Total execution time (CPU/WALL):       26.23/       7.22 seconds.
--executable xbcktrn finished with status     0 in        7.28 seconds (walltime).
 --invoking executable--
/nfs/workspaces/public/cfour_mpi/bin/xvdint
 @GETMEM-I,  Allocated    3814 MB of main memory.
 One- and two-electron integral derivatives are calculated
 for RHF-CC/MBPT hessians and dipole derivatives.
 Spherical gaussians are used.
  magnet F F
                    8722  records have been written to the Sort file.
  Total length of Sort file :             178609116  words.
 Evaluation of 2el integral derivatives

                      Two-electron integral gradient
                      ------------------------------

                         C #1 z     0.0000000000
                         O #2 z     0.0000000000


 C #1       0.0000000000           -0.6941811780            0.0000000000
 O #2       0.0000000000            0.6941811780            0.0000000000


 Evaluation of 2e integral derivatives required  357.11 seconds.
  contribution to Hessian
        0.0000000000        0.0000000000        0.0000000000
        0.0000000000       -0.6941811780        0.6941811780
 @CHECKOUT-I, Total execution time (CPU/WALL):      357.08/      72.65 seconds.
--executable xvdint finished with status     0 in       72.83 seconds (walltime).
 --invoking executable--
/nfs/workspaces/public/cfour_mpi/bin/xanti
 @GETMEM-I,  Allocated    3814 MB of main memory.
 CCSD MO gammas will be sorted to Mulliken order.
 @CHECKOUT-I, Total execution time (CPU/WALL):       17.17/      55.62 seconds.
--executable xanti finished with status     0 in       55.77 seconds (walltime).
 --invoking executable--
/nfs/workspaces/public/cfour_mpi/bin/xbcktrn
 @GETMEM-I,  Allocated    3814 MB of main memory.
 CCSD MO gammas will be transformed to the AO basis.
 @CHECKOUT-I, Total execution time (CPU/WALL):       67.03/      19.49 seconds.
--executable xbcktrn finished with status     0 in       19.56 seconds (walltime).
 --invoking executable--
/nfs/workspaces/public/cfour_mpi/bin/xvdint
 @GETMEM-I,  Allocated    3814 MB of main memory.
 One- and two-electron integral derivatives are calculated
 for RHF-CC/MBPT hessians and dipole derivatives.
 Spherical gaussians are used.
  magnet F F

                     Kinetic energy integral gradient
                     --------------------------------

                         C #1 z    -1.5407943732
                         O #2 z     1.5407943732


 C #1       0.0000000000            0.0000000000           -1.5407943732
 O #2       0.0000000000            0.0000000000            1.5407943732



                   Nuclear attraction integral gradient
                   ------------------------------------

                         C #1 z    23.9829686902
                         O #2 z   -23.9829686902


 C #1       0.0000000000            0.0000000000           23.9829686902
 O #2       0.0000000000            0.0000000000          -23.9829686902



                      Reorthonormalization gradient
                      -----------------------------

                         C #1 z     0.0000000000
                         O #2 z     0.0000000000


 C #1       0.0000000000            0.0000000000            0.0000000000
 O #2       0.0000000000            0.0000000000            0.0000000000



                     Kinetic energy integral Hessian
                     -------------------------------


           Symmetry 1

           C #1 z      O #2 z

 C #1 z    1.087015
 O #2 z   -1.087015    1.087015


           Symmetry 2

           C #1 x      O #2 x

 C #1 x   -2.088911
 O #2 x    2.088911   -2.088911


           Symmetry 3

           C #1 y      O #2 y

 C #1 y   -2.088911
 O #2 y    2.088911   -2.088911




           C #1 x      C #1 y      C #1 z      O #2 x      O #2 y      O #2 z

 C #1 x   -2.088911
 C #1 y    0.000000   -2.088911
 C #1 z    0.000000    0.000000    1.087015

 O #2 x    2.088911    0.000000    0.000000   -2.088911
 O #2 y    0.000000    2.088911    0.000000    0.000000   -2.088911
 O #2 z    0.000000    0.000000   -1.087015    0.000000    0.000000    1.087015




                   Nuclear attraction integral Hessian
                   -----------------------------------


           Symmetry 1

           C #1 z      O #2 z

 C #1 z  -13.360485
 O #2 z   13.360485  -13.360485


           Symmetry 2

           C #1 x      O #2 x

 C #1 x   21.838552
 O #2 x  -21.838552   21.838552


           Symmetry 3

           C #1 y      O #2 y

 C #1 y   21.838552
 O #2 y  -21.838552   21.838552




           C #1 x      C #1 y      C #1 z      O #2 x      O #2 y      O #2 z

 C #1 x   21.838552
 C #1 y    0.000000   21.838552
 C #1 z    0.000000    0.000000  -13.360485

 O #2 x  -21.838552    0.000000    0.000000   21.838552
 O #2 y    0.000000  -21.838552    0.000000    0.000000   21.838552
 O #2 z    0.000000    0.000000   13.360485    0.000000    0.000000  -13.360485




                Highest order reorthonormalization Hessian
                ------------------------------------------


           Symmetry 1

           C #1 z      O #2 z

 C #1 z    0.000000
 O #2 z    0.000000    0.000000


           Symmetry 2

           C #1 x      O #2 x

 C #1 x    0.000000
 O #2 x    0.000000    0.000000


           Symmetry 3

           C #1 y      O #2 y

 C #1 y    0.000000
 O #2 y    0.000000    0.000000




           C #1 x      C #1 y      C #1 z      O #2 x      O #2 y      O #2 z




                Electronic contributions to dipole moment
                -----------------------------------------

                               au             Debye

                    z     -0.90549756     -2.30154563

  Conversion factor used: 1 a.u. =   2.54174691 Debye 



   Electronic contributions to static part of dipole moment derivatives
   --------------------------------------------------------------------


                     Total dipole moment derivatives
                     -------------------------------


           Symmetry 1
                              Ez

               C #1 z    -5.71886839
               O #2 z    -8.28113161

           Symmetry 2
                              Ex

               C #1 x    -5.80473665
               O #2 x    -8.19526335

           Symmetry 3
                              Ey

               C #1 y    -5.80473665
               O #2 y    -8.19526335



                       Ex          Ey          Ez

      C #1    x   -5.804737    0.000000    0.000000
      C #1    y    0.000000   -5.804737    0.000000
      C #1    z    0.000000    0.000000   -5.718868

      O #2    x   -8.195263    0.000000    0.000000
      O #2    y    0.000000   -8.195263    0.000000
      O #2    z    0.000000    0.000000   -8.281132

 Evaluation of 1e integral derivatives required    1.69 seconds.
                    8815  records have been written to the Sort file.
  Total length of Sort file :             180513570  words.
 Evaluation of 2el integral derivatives

                      Two-electron integral gradient
                      ------------------------------

                         C #1 z   -11.2571903176
                         O #2 z    11.2571903176


 C #1       0.0000000000            0.0000000000          -11.2571903176
 O #2       0.0000000000            0.0000000000           11.2571903176


 Evaluation of 2e integral derivatives required  727.71 seconds.

                            Molecular gradient
                            ------------------

                         C #1 z     0.4166306814
                         O #2 z    -0.4166306814


 C #1       0.0000000000            0.0000000000            0.4166306814
 O #2       0.0000000000            0.0000000000           -0.4166306814


  Molecular gradient norm 0.589E+00

                            Molecular hessian
                            -----------------


           Symmetry 1

           C #1 z      O #2 z

 C #1 z   67.815460
 O #2 z  -67.815460   67.815460


           Symmetry 2

           C #1 x      O #2 x

 C #1 x    3.353691
 O #2 x   -3.353691    3.353691


           Symmetry 3

           C #1 y      O #2 y

 C #1 y    3.353691
 O #2 y   -3.353691    3.353691




           C #1 x      C #1 y      C #1 z      O #2 x      O #2 y      O #2 z

 C #1 x    3.353691
 C #1 y    0.000000    3.353691
 C #1 z    0.000000    0.000000   67.815460

 O #2 x   -3.353691    0.000000    0.000000    3.353691
 O #2 y    0.000000   -3.353691    0.000000    0.000000    3.353691
 O #2 z    0.000000    0.000000  -67.815460    0.000000    0.000000   67.815460




                           Total dipole moment
                           -------------------

                               au             Debye

                    z     -0.06131623     -0.15585035

  Conversion factor used: 1 a.u. =   2.54174691 Debye 



                     Total dipole moment derivatives
                     -------------------------------


           Symmetry 1
                              Ez

               C #1 z     0.71398208
               O #2 z    -0.71398208

           Symmetry 2
                              Ex

               C #1 x    -0.03216417
               O #2 x     0.03216417

           Symmetry 3
                              Ey

               C #1 y    -0.03216417
               O #2 y     0.03216417



                       Ex          Ey          Ez

      C #1    x   -0.032164    0.000000    0.000000
      C #1    y    0.000000   -0.032164    0.000000
      C #1    z    0.000000    0.000000    0.713982

      O #2    x    0.032164    0.000000    0.000000
      O #2    y    0.000000    0.032164    0.000000
      O #2    z    0.000000    0.000000   -0.713982

 @CHECKOUT-I, Total execution time (CPU/WALL):      729.40/     121.93 seconds.
--executable xvdint finished with status     0 in      122.14 seconds (walltime).
 --invoking executable--
/nfs/workspaces/public/cfour_mpi/bin/xjoda
  @GTFLGS-I, Hessian will be transformed to curvilinear coordinates.
  @GTFLGS-I, Hessian will be transformed to curvilinear coordinates.
  igrd and ihes are                      0                     1
  gradient from JOBARC 
   0.000000000000000   0.000000000000000   0.416630681443280
   0.000000000000000   0.000000000000000  -0.416630681443280
 
  @PROJFCM-I, Projecting force constant matrix onto totally symmetric subspace.
  Largest difference between matrix elements of symmetrized
  and unsymmetrized FCM :     0.7545120084E-10.
  read isotopes from ZMAT file 
 
  Summary of diagonal Born-Oppenheimer correction at the correlated level
  The total diagonal Born-Oppenheimer correction (DBOC) is:      0.0038719914 a.u.
  The total diagonal Born-Oppenheimer correction (DBOC) is:        849.803885 cm-1
  The total diagonal Born-Oppenheimer correction (DBOC) is:            10.166 kJ/mole
  hellooooooo 
  readis is  F
 
 @CHECKOUT-I, Total execution time (CPU/WALL):        0.02/       0.07 seconds.
--executable xjoda finished with status     0 in        0.10 seconds (walltime).
  The final electronic energy is      -113.281927426647172 a.u. 
  This computation required                         4310.89 seconds (walltime).
