 --invoking executable--
/nfs/workspaces/public/cfour_mpi/bin/xjoda


   *************************************************************************
         <<<     CCCCCC     CCCCCC   |||     CCCCCC     CCCCCC   >>>
       <<<      CCC        CCC       |||    CCC        CCC         >>>
      <<<      CCC        CCC        |||   CCC        CCC            >>>
    <<<        CCC        CCC        |||   CCC        CCC              >>>
      <<<      CCC        CCC        |||   CCC        CCC            >>>
       <<<      CCC        CCC       |||    CCC        CCC         >>>
         <<<     CCCCCC     CCCCCC   |||     CCCCCC     CCCCCC   >>>
   *************************************************************************

     ****************************************************************
     * CFOUR Coupled-Cluster techniques for Computational Chemistry *
     ****************************************************************
 

   Department of Chemistry                Institut fuer Physikalische Chemie
   University of Florida                  Universitaet Mainz
   Gainesville, FL 32611, USA             D-55099 Mainz, Germany

   Department of Chemistry                Fakultaet fuer Chemie und Biowiss.
   Johns Hopkins University               Karlsruher Institut fuer Technologie
   Baltimore, MD 21218, USA               D-76131 Karlsruhe, Germany

   Department of Chemistry                Department of Physical Chemistry
   Southern Methodist University          Eotvos Lorand University
   Dallas, TX 75275, USA                  H-1053 Budapest, Hungary

 
                       Version 2.1
 
                     vincent.theory.phys.ucl.ac.uk                     
                     Sat  1 Mar 21:46:21 GMT 2025                      
                     integer*8 version is running
 
********************************************************************************
*                          Input from ZMAT file                                *
********************************************************************************
Carbon Monoxide DBOC calculation                                                
C                                                                               
O 1 r                                                                           
                                                                                
r=1.12825                                                                       
                                                                                
                                                                                
*CFOUR(CALC=CCSD,BASIS=AUG-PCVQZ,SCF_CONV=10                                    
CC_CONV=14,DBOC=ON,MEMORY=500000000                                             
ZFIELD=-200)                                                                    
                                                                                
%isotopes                                                                       
12                                                                              
18                                                                              
********************************************************************************
  @GTFLGS-I, Hessian will be transformed to curvilinear coordinates.
    -------------------------------------------------------------------
                    CFOUR Control Parameters 
    -------------------------------------------------------------------
        External           Internal           Value            Units
          Name               Name
    -------------------------------------------------------------------
       ABCDTYPE             IABCDT         STANDARD    [  0]    ***   
       ANHARMONIC           IANHAR         OFF         [  0]    ***   
       ANH_ALGORIT          IANALG         STANDARD    [  0]    ***   
       ANH_DERIVAT          IANDER         SECOND      [  1]    ***   
       ANH_MODE             ANHMOD         VIBRATION   [  0]    ***   
       ANH_STEPSIZ          ICUBST             50000          x 10-6  
       ANH_SYMMETR          IANHSM         ABELIAN     [  0]    ***   
       AO_LADDERS           IAOLAD         SINGLEPASS  [  1]    ***   
       AV_SCF               IAVSCF         OFF         [  0]    ***   
       BASIS                IBASIS         AUG-PCVQZ   [ 52]    ***   
       BOTHVECTORS          BOTHVC         OFF         [  0]    ***   
       BOX_POTENT           IPIAB          OFF         [  0]    ***   
       BREIT                IBREIT         OFF         [  0]    ***   
       BRUCK_CONV           IBRTOL          10D-  4             ***   
       BRUECKNER            IBRKNR         OFF         [  0]    ***   
       BUFFERSIZE           IBUFFS              4096            ***   
       CACHE_RECS           ICHREC             10               ***   
       CALCLEVEL            ICLLVL         CCSD        [ 10]    ***   
       CCORBOPT             ICCORB         OFF         [  0]  x 0.01  
       CC_CONV              ICCCNV          10D- 14             ***   
       CC_EXPORDER          ICCEOR              5               ***   
       CC_EXTRAPOL          ICCEXT         DIIS        [  1]    ***   
       CC_GUESS             ICCGES         MP2         [  0]    ***   
       CC_MAXCYC            ICCCYC            100              cycles 
       CC_PROGRAM           ICCPRO         VCC         [  0]    ***   
       CHARGE               ICHRGE              0               ***   
       CHOLESKY             ICHOLE         OFF         [  0]    ***   
       CIS_CONV             ICISTL              5               ***   
       COMM_SIZE            IPSIZE            ***               ***   
       CONSTANT             ICONST         OLD         [  1]    ***   
       CONTINUUM            ICONTU         NONE        [  0]    ***   
       CONTRACTION          ICNTYP         GENERAL     [  1]    ***   
       COORDINATES          ICOORD         INTERNAL    [  0]    ***   
       CPHF_CONVER          ICPHFT          10D- 16             ***   
       CPHF_MAXCYC          ICPHFC             64              cycles 
       CUBIC                ICUBIC         OFF         [  0]    ***   
       CURVILINEAR          ICURVY         ON          [  1]    ***   
       DBOC                 IDBOC          ON          [  1]    ***   
       DCT                  IDCT           OFF         [  0]    ***   
       DERIV_LEV            IDRLVL         SECOND      [  2]    ***   
       DEVMEM_SIZE          IDVMEM          50000000           MByte  
       DIAG_MRCC            IEOMST          10D-  0             ***   
       DIFF_TYPE            IDIFTY         RELAXED     [  0]    ***   
       DIRECT               IDIRCT         OFF         [  0]    ***   
       DROPMO               IDRPMO      NONE         
       ECP                  IECP           OFF         [  0]    ***   
       EIGENVECTOR          IVEC                1               ***   
       EL_ANHARM            IELANH         OFF         [  0]    ***   
       EOMFOLLOW            IEOMSR         ENERGY      [  0]    ***   
       EOMIP                IEOMIP         OFF         [  0]    ***   
       EOMLEVEL             HBARFM         SAME        [  0]    ***   
       EOM_MRCC             IMRCCE         NEW         [  1]    ***   
       EOM_NONIT            EOMNON         OFF         [  0]    ***   
       EOM_NSING            IEOMSI          10D-  0             ***   
       EOM_NSTATES          IMRCCD         DAVIDSON    [  0]    ***   
       EOM_NTRIP            IEOMTR          10D-  0             ***   
       EOM_ORDER            IEXORD         ENERGY      [  0]    ***   
       EOM_PROPSTA          IEOMST              0               ***   
       ESTATE_CONV          IEXTOL          10D-  5             ***   
       ESTATE_DIAG          IEXDIG         ITERATIVE   [  0]    ***   
       ESTATE_LOCK          IESLOC         ON          [  1]    ***   
       ESTATE_MAXC          IEXMXC             40               ***   
       ESTATE_PROP          IEXPRP         OFF         [  0]    ***   
       EVAL_HESS            IRECAL              0            # of cyc.
       EXCITATION           IEXCIT              0               ***   
       EXCITE               IEXCIT         NONE        [  0]    ***   
       EXTERN_POT           IEXPOT         OFF         [  0]    ***   
       FCGRADNEW            IFCGNW         OFF         [  0]    ***   
       FC_FIELD             IFINFC              0             x 10-6  
       FD_CALTYPE           IFDCAL         GRADONLY    [  0]    ***   
       FD_PROJECT           IFDPRJ         OFF         [  1]    ***   
       FD_STEPSIZE          IDISFD              0            10-4 bohr
       FD_USEGROUP          IFDGRP         FULL        [  0]    ***   
       FILE_RECSIZ          IFLREC              4096           words  
       FINITE_PERT          IFIPER              0             x 10-6  
       FIXGEOM              IFIXGM         OFF         [  0]    ***   
       FOCK                 IFOCK          AO          [  1]    ***   
       FREQ_ALGORI          IVIALG         STANDARD    [  0]    ***   
       FROZEN_CORE          IFROCO         OFF         [  0]    ***   
       GAMMA_ABCD           IGABCD         STORE       [  0]    ***   
       GAMMA_ABCI           IGABCI         STORE       [  0]    ***   
       GENBAS_1             IGNBS1              0               ***   
       GENBAS_2             IGNBS2              0               ***   
       GENBAS_3             IGNBS3              0               ***   
       GENBAS_4             IGNBS4              0               ***   
       GEO_CONV             ICONTL              5              H/bohr 
       GEO_MAXCYC           IOPTCY             50               ***   
       GEO_MAXSTEP          IMXSTP            300            millibohr
       GEO_METHOD           INR            SINGLE_POINT[  5]    ***   
       GIAO                 IGIAO          OFF         [  1]    ***   
       GIMIC                IGIMIC         OFF         [  0]    ***   
       GRID                 IGRID          OFF         [  0]    ***   
       GRID_ALGO            IGALGO         SERIAL      [  0]    ***   
       GUESS                IGUESS         MOREAD      [  0]    ***   
       HBAR                 IHBAR          OFF         [  0]    ***   
       HESS_TYPE            IHESTP         SCF         [  0]    ***   
       HF2_FILE             IHF2Fl         USE         [  1]    ***   
       HFSTABILITY          ISTABL         OFF         [  0]    ***   
       INCORE               INCORE         OFF         [  0]    ***   
       INPUT_MRCC           IMRCC          ON          [  1]    ***   
       INTEGRALS            INTTYP         VMOL        [  1]    ***   
       JODA_PRINT           IJPRNT              0               ***   
       KEYWORD_OUT          IDMPKW         NO          [  0]    ***   
       LINDEP_TOL           ILINDP              8               ***   
       LINEQ_CONV           IZTACN          10D-  7           cycles  
       LINEQ_EXPOR          ILMAXD              5               ***   
       LINEQ_MAXCY          ILMAXC            100               ***   
       LINEQ_TYPE           ILTYPE         DIIS        [  1]    ***   
       LOCK_ORBOCC          ILOCOC         OFF         [  0]    ***   
       MEMORY_SIZE          IMEMSZ         500000000           words  
       MEM_UNIT             IMEMU          INTEGERWORDS[  0]    ***   
       MRCC                 IMRCCC         OFF         [  0]    ***   
       MULTIPLICTY          IMULTP              1               ***   
       NACOUPLING           IVCOUP         OFF         [  0]    ***   
       NEGEVAL              IDIE           ABORT       [  0]    ***   
       NEWNORM              INEWNO         OFF         [  0]    ***   
       NON-HF               INONHF         OFF         [  0]    ***   
       NTOP_TAMP            ITOPT2             15               ***   
       NUC_MODEL            INUCMO         POINT       [  0]    ***   
       OCCUPATION           IOCCU   ESTIMATED BY SCF 
       OPEN-SHELL           IOPEN          SPIN-ORBITAL[  0]    ***   
       OPTVIB               IOPTVB         OFF         [  0]    ***   
       ORBITALS             IORBTP         STANDARD    [  0]    ***   
       PARALLEL             IPARAL         ON          [  1]    ***   
       PARA_INT             IPINTS         ON          [  1]    ***   
       PARA_PRINT           IPPRIN              0               ***   
       PERT_ORB             IPTORB         STANDARD    [  0]    ***   
       POINTS               IGRDFD              0               ***   
       PRINT                IPRNT               0               ***   
       PROPS                IPROPS         OFF         [  0]    ***   
       PROP_INTEGR          IINTYP         INTERNAL    [  0]    ***   
       PSI                  IPSI           OFF         [  0]    ***   
       QC_ALG               IQCALG         FLM         [  0]    ***   
       QC_LINALG            IQCLIN         TRIDIAG     [  2]    ***   
       QC_MAXCYC            IQCMAX          10D-100           cycles  
       QC_MAXSCFCY          IQCMSC          10D- 15           cycles  
       QC_RTRUST            IQCRTR          10D-  0           x 10-3  
       QC_SKIPSCF           IQCSKI         OFF         [  0]    ***   
       QC_START             IQCSTA          10D-  1             ***   
       QRHFGUESS            IQGUES         OFF         [  0]    ***   
       QUARTIC              IQUART         OFF         [  0]    ***   
       RAMAN_INT            IRAMIN         OFF         [  0]    ***   
       RAMAN_ORB            IRAMRE         UNRELAXED   [  0]    ***   
       RDO                  IRDOFM         ON          [  1]    ***   
       REDUCE_REPR          REDREP         Ir          [  0]    ***   
       REFERENCE            IREFNC         RHF         [  0]    ***   
       RELATIVIST           IRELAT         OFF         [  0]    ***   
       RELAX_DENS           IRDENS         ON          [  1]    ***   
       RESET_FLAGS          IRESET         OFF         [  0]    ***   
       RESTART_CC           ICCRES         OFF         [  0]    ***   
       ROT_EVEC             ROTVEC              0               ***   
       SAVE_INTS            ISVINT         OFF         [  0]    ***   
       SCALE_ON             ISTCRT              0               ***   
       SCF_CONV             ISCFCV          10D- 10             ***   
       SCF_DAMPING          IDAMP               0             x 10-3  
       SCF_EXPORDE          IRPPOR              6               ***   
       SCF_EXPSTAR          IRPPLS              8               ***   
       SCF_EXTRAPO          IRPP           ON          [  1]    ***   
       SCF_MAXCYC           ISCFCY            150              cycles 
       SCF_NOSTOP           ISCFST         OFF         [  0]    ***   
       SCF_PRINT            ISCFPR              0               ***   
       SCF_PROG             ISCFPR         SCF         [  0]    ***   
       SD_FIELD             IFINSD              0             x 10-6  
       SOPERT               IPERSO         OFF         [  0]    ***   
       SPHERICAL            IDFGHI         ON          [  1]    ***   
       SPINORBIT            ISOCAL         OFF         [  0]    ***   
       SPINROTATIO          ISRCON         OFF         [  0]    ***   
       SPIN_FLIP            ISPFLP         OFF         [  0]    ***   
       SPIN_ORBIT           ISPORB         OFF         [  0]    ***   
       SPIN_SCAL            ISCSMP         OFF         [  0]    ***   
       STEEPSCALE           ISTPSC              1000          x 10-3  
       SUBGROUP             ISUBGP         DEFAULT     [  0]    ***   
       SUBGRPAXIS           ISBXYZ         X           [  0]    ***   
       SYMMETRY             ISYM           ON          [  0]    ***   
       SYM_CHECK            ISYMCK         OVERRIDE    [  1]    ***   
       T3_EXTRAPOL          IT3EXT         OFF         [  0]    ***   
       T4_EXTRAPOL          IT4EXP         OFF         [  0]    ***   
       TAMP_SUM             IEVERY              5               ***   
       TESTSUITE            ITESTS         OFF         [  0]    ***   
       THERMOCH             ITHERM         OFF         [  0]    ***   
       TOL_CHOLESK          ITOLCH          10D-  4             ***   
       TRANGRAD             IRESRM         OFF         [  0]    ***   
       TRANS_INV            ITRAIN         IGNORE      [  1]    ***   
       TREAT_PERT           ITREAT         SIMULTANEOUS[  0]    ***   
       TRIP_ALGORI          ITRALG         NORMAL      [  0]    ***   
       UIJ_THRESHO          IUIJTH              1               ***   
       UNITS                IUNITS         ANGSTROM    [  0]    ***   
       UNOS                 IUNOS          OFF         [  0]    ***   
       UPDATE_HESS          IHUPDT         ON          [  1]    ***   
       VIBPHASE             ISETPH         STANDARD    [  0]    ***   
       VIBRATION            IVIB           ANALYTIC    [  1]    ***   
       VIB_ALGORIT          IGEALG         STANDARD    [  0]    ***   
       VNATORB              IVNORB         OFF         [  0]    ***   
       VTRAN                IVTRAN         FULL/PARTIAL[  0]    ***   
       XFIELD               IXEFLD              0             x 10-6  
       XFORM_TOL            IXFTOL          10D- 11             ***   
       YFIELD               IYEFLD              0             x 10-6  
       ZFIELD               IZEFLD            ***             x 10-6  
       ZSCALE_EXP           IZEXPS         OFF         [  0]    ***   
    -------------------------------------------------------------------
   2 entries found in Z-matrix 
   Job Title : Carbon Monoxide DBOC calculation                                                
   There are  1 unique internal coordinates.
   Of these,  0 will be optimized.
   User supplied Z-matrix: 
--------------------------------------------------------------------------------
       SYMBOL    BOND      LENGTH    ANGLE     ANGLE     DIHED     ANGLE
                  TO      (ANGST)    WRT      (DEG)      WRT      (DEG)
--------------------------------------------------------------------------------
        C    
        O          1         r    
                  *Initial values for internal coordinates* 
                      Name             Value
                        r               1.1282500000
--------------------------------------------------------------------------------
  read isotopes from ZMAT file 
   Rotational constants (in cm-1): 
          1.8393377259             1.8393377259
   Rotational constants (in MHz): 
      55141.9655206801         55141.9655206801
********************************************************************************
   The full molecular point group is CXv .
   The largest Abelian subgroup of the full molecular point group is C2v .
   The computational point group is C2v .
********************************************************************************
--------------------------------------------------------------------------------
   Analysis of internal coordinates specified by Z-matrix 
--------------------------------------------------------------------------------
   *The nuclear repulsion energy is   22.513184843784618 a.u.
   *There is   1 degree of freedom within the tot. symm. molecular subspace.
   *Z-matrix requests optimization of   0 coordinates.
   *The optimization is constrained.
   *The following   1 parameters can have non-zero 
    derivatives within the totally symmetric subspace:
             r    [ 1]
   *The following   0 parameters are to be optimized:

   *The following coordinates must be varied in an  unconstrained optimization.
             r    [ 1]
--------------------------------------------------------------------------------


 ----------------------------------------------------------------
         Coordinates used in calculation (QCOMP) 
 ----------------------------------------------------------------
 Z-matrix   Atomic            Coordinates (in bohr)
  Symbol    Number           X              Y              Z
 ----------------------------------------------------------------
     C         6        -0.00000000     0.00000000     1.27922650
     O         8         0.00000000     0.00000000    -0.85285745
 ----------------------------------------------------------------
 
   Interatomic distance matrix (Angstroms) 
 
                 C             O    
                [ 1]        [ 2]
  C    [ 1]     0.00000
  O    [ 2]     1.12825     0.00000
 rotcon2
   Rotational constants (in cm-1): 
          1.8393377259             0.0000000000
   Rotational constants (in MHz): 
      55141.9655206801             0.0000000000
  ECPDATA file not present.   Using default ECPDATA. 
  @GTFLGS-I, Hessian will be transformed to curvilinear coordinates.
  There are  218 basis functions.
 @CHECKOUT-I, Total execution time (CPU/WALL):        0.24/       0.33 seconds.
--executable xjoda finished with status     0 in        0.39 seconds (walltime).
 --invoking executable--
/nfs/workspaces/public/cfour_mpi/bin/xvmol
 SERIAL VERSION OF MOLECULE STARTED
********************************************************************************
                    INPUT FROM MOL FILE
********************************************************************************
INTGRL        1    0    1    0    0    0    0    0    0                         
         *** CFOUR Program System (Release V0.1) ***                            
Carbon Monoxide DBOC calculation                                                
    2    2 X  Y       0.10E-08              0    0                              
   9999.00      3.00                                                            
          6.00000000    1    5    1    1    1    1    1                         
C #1  -0.000000000000000   0.000000000000000   1.279226496685937                
   16    9                                                                      
   33980.0000000000       9.100000000000000E-005 -1.900000000000000E-005        
  0.000000000000000E+000  0.000000000000000E+000  0.000000000000000E+000        
  0.000000000000000E+000  0.000000000000000E+000  0.000000000000000E+000        
  0.000000000000000E+000                                                        
   5089.00000000000       7.040000000000000E-004 -1.510000000000000E-004        
  0.000000000000000E+000  0.000000000000000E+000  0.000000000000000E+000        
  0.000000000000000E+000  0.000000000000000E+000  0.000000000000000E+000        
  0.000000000000000E+000                                                        
   1157.00000000000       3.693000000000000E-003 -7.850000000000000E-004        
  0.000000000000000E+000  0.000000000000000E+000  0.000000000000000E+000        
  0.000000000000000E+000  0.000000000000000E+000  0.000000000000000E+000        
  0.000000000000000E+000                                                        
   326.600000000000       1.536000000000000E-002 -3.324000000000000E-003        
  0.000000000000000E+000  0.000000000000000E+000  0.000000000000000E+000        
  0.000000000000000E+000  0.000000000000000E+000  0.000000000000000E+000        
  0.000000000000000E+000                                                        
   106.100000000000       5.292900000000000E-002 -1.151200000000000E-002        
  0.000000000000000E+000  0.000000000000000E+000  0.000000000000000E+000        
  0.000000000000000E+000  0.000000000000000E+000  0.000000000000000E+000        
  0.000000000000000E+000                                                        
   38.1100000000000       0.147043000000000      -3.416000000000000E-002        
  0.000000000000000E+000  0.000000000000000E+000  0.000000000000000E+000        
  0.000000000000000E+000  0.000000000000000E+000  0.000000000000000E+000        
  0.000000000000000E+000                                                        
   14.7500000000000       0.305631000000000      -7.717300000000001E-002        
  0.000000000000000E+000  0.000000000000000E+000  0.000000000000000E+000        
  0.000000000000000E+000  0.000000000000000E+000  0.000000000000000E+000        
  0.000000000000000E+000                                                        
   6.03500000000000       0.399345000000000      -0.141493000000000             
  0.000000000000000E+000  0.000000000000000E+000  0.000000000000000E+000        
  0.000000000000000E+000  0.000000000000000E+000  0.000000000000000E+000        
  0.000000000000000E+000                                                        
   2.53000000000000       0.217051000000000      -0.118019000000000             
  0.000000000000000E+000  0.000000000000000E+000  0.000000000000000E+000        
  0.000000000000000E+000  0.000000000000000E+000  0.000000000000000E+000        
  0.000000000000000E+000                                                        
  0.735500000000000       1.589400000000000E-002  0.273806000000000             
   1.00000000000000       0.000000000000000E+000  0.000000000000000E+000        
  0.000000000000000E+000  0.000000000000000E+000  0.000000000000000E+000        
  0.000000000000000E+000                                                        
  0.290500000000000      -3.084000000000000E-003  0.586510000000000             
  0.000000000000000E+000   1.00000000000000       0.000000000000000E+000        
  0.000000000000000E+000  0.000000000000000E+000  0.000000000000000E+000        
  0.000000000000000E+000                                                        
  0.111100000000000       9.779999999999999E-004  0.285430000000000             
  0.000000000000000E+000  0.000000000000000E+000   1.00000000000000             
  0.000000000000000E+000  0.000000000000000E+000  0.000000000000000E+000        
  0.000000000000000E+000                                                        
   7.21600000000000       0.000000000000000E+000  0.000000000000000E+000        
  0.000000000000000E+000  0.000000000000000E+000  0.000000000000000E+000        
   1.00000000000000       0.000000000000000E+000  0.000000000000000E+000        
  0.000000000000000E+000                                                        
   19.5700000000000       0.000000000000000E+000  0.000000000000000E+000        
  0.000000000000000E+000  0.000000000000000E+000  0.000000000000000E+000        
  0.000000000000000E+000   1.00000000000000       0.000000000000000E+000        
  0.000000000000000E+000                                                        
   53.0730000000000       0.000000000000000E+000  0.000000000000000E+000        
  0.000000000000000E+000  0.000000000000000E+000  0.000000000000000E+000        
  0.000000000000000E+000  0.000000000000000E+000   1.00000000000000             
  0.000000000000000E+000                                                        
  4.145000000000000E-002  0.000000000000000E+000  0.000000000000000E+000        
  0.000000000000000E+000  0.000000000000000E+000  0.000000000000000E+000        
  0.000000000000000E+000  0.000000000000000E+000  0.000000000000000E+000        
   1.00000000000000                                                             
   10    8                                                                      
   34.5100000000000       5.378000000000000E-003  0.000000000000000E+000        
  0.000000000000000E+000  0.000000000000000E+000  0.000000000000000E+000        
  0.000000000000000E+000  0.000000000000000E+000  0.000000000000000E+000        
   7.91500000000000       3.613200000000000E-002  0.000000000000000E+000        
  0.000000000000000E+000  0.000000000000000E+000  0.000000000000000E+000        
  0.000000000000000E+000  0.000000000000000E+000  0.000000000000000E+000        
   2.36800000000000       0.142493000000000       0.000000000000000E+000        
  0.000000000000000E+000  0.000000000000000E+000  0.000000000000000E+000        
  0.000000000000000E+000  0.000000000000000E+000  0.000000000000000E+000        
  0.813200000000000       0.342150000000000        1.00000000000000             
  0.000000000000000E+000  0.000000000000000E+000  0.000000000000000E+000        
  0.000000000000000E+000  0.000000000000000E+000  0.000000000000000E+000        
  0.289000000000000       0.463864000000000       0.000000000000000E+000        
   1.00000000000000       0.000000000000000E+000  0.000000000000000E+000        
  0.000000000000000E+000  0.000000000000000E+000  0.000000000000000E+000        
  0.100700000000000       0.250028000000000       0.000000000000000E+000        
  0.000000000000000E+000   1.00000000000000       0.000000000000000E+000        
  0.000000000000000E+000  0.000000000000000E+000  0.000000000000000E+000        
   8.18200000000000       0.000000000000000E+000  0.000000000000000E+000        
  0.000000000000000E+000  0.000000000000000E+000   1.00000000000000             
  0.000000000000000E+000  0.000000000000000E+000  0.000000000000000E+000        
   24.1860000000000       0.000000000000000E+000  0.000000000000000E+000        
  0.000000000000000E+000  0.000000000000000E+000  0.000000000000000E+000        
   1.00000000000000       0.000000000000000E+000  0.000000000000000E+000        
   71.4940000000000       0.000000000000000E+000  0.000000000000000E+000        
  0.000000000000000E+000  0.000000000000000E+000  0.000000000000000E+000        
  0.000000000000000E+000   1.00000000000000       0.000000000000000E+000        
  3.218000000000000E-002  0.000000000000000E+000  0.000000000000000E+000        
  0.000000000000000E+000  0.000000000000000E+000  0.000000000000000E+000        
  0.000000000000000E+000  0.000000000000000E+000   1.00000000000000             
    6    6                                                                      
   1.84800000000000        1.00000000000000       0.000000000000000E+000        
  0.000000000000000E+000  0.000000000000000E+000  0.000000000000000E+000        
  0.000000000000000E+000                                                        
  0.649000000000000       0.000000000000000E+000   1.00000000000000             
  0.000000000000000E+000  0.000000000000000E+000  0.000000000000000E+000        
  0.000000000000000E+000                                                        
  0.228000000000000       0.000000000000000E+000  0.000000000000000E+000        
   1.00000000000000       0.000000000000000E+000  0.000000000000000E+000        
  0.000000000000000E+000                                                        
   8.65600000000000       0.000000000000000E+000  0.000000000000000E+000        
  0.000000000000000E+000   1.00000000000000       0.000000000000000E+000        
  0.000000000000000E+000                                                        
   33.2130000000000       0.000000000000000E+000  0.000000000000000E+000        
  0.000000000000000E+000  0.000000000000000E+000   1.00000000000000             
  0.000000000000000E+000                                                        
  7.660000000000000E-002  0.000000000000000E+000  0.000000000000000E+000        
  0.000000000000000E+000  0.000000000000000E+000  0.000000000000000E+000        
   1.00000000000000                                                             
    4    4                                                                      
   1.41900000000000        1.00000000000000       0.000000000000000E+000        
  0.000000000000000E+000  0.000000000000000E+000                                
  0.485000000000000       0.000000000000000E+000   1.00000000000000             
  0.000000000000000E+000  0.000000000000000E+000                                
   24.6940000000000       0.000000000000000E+000  0.000000000000000E+000        
   1.00000000000000       0.000000000000000E+000                                
  0.187000000000000       0.000000000000000E+000  0.000000000000000E+000        
  0.000000000000000E+000   1.00000000000000                                     
    2    2                                                                      
   1.01100000000000        1.00000000000000       0.000000000000000E+000        
  0.424000000000000       0.000000000000000E+000   1.00000000000000             
          8.00000000    1    5    1    1    1    1    1                         
O #2   0.000000000000000   0.000000000000000  -0.852857450257346                
   16    9                                                                      
   61420.0000000000       9.000000000000001E-005 -2.000000000000000E-005        
  0.000000000000000E+000  0.000000000000000E+000  0.000000000000000E+000        
  0.000000000000000E+000  0.000000000000000E+000  0.000000000000000E+000        
  0.000000000000000E+000                                                        
   9199.00000000000       6.980000000000001E-004 -1.590000000000000E-004        
  0.000000000000000E+000  0.000000000000000E+000  0.000000000000000E+000        
  0.000000000000000E+000  0.000000000000000E+000  0.000000000000000E+000        
  0.000000000000000E+000                                                        
   2091.00000000000       3.664000000000000E-003 -8.290000000000000E-004        
  0.000000000000000E+000  0.000000000000000E+000  0.000000000000000E+000        
  0.000000000000000E+000  0.000000000000000E+000  0.000000000000000E+000        
  0.000000000000000E+000                                                        
   590.900000000000       1.521800000000000E-002 -3.508000000000000E-003        
  0.000000000000000E+000  0.000000000000000E+000  0.000000000000000E+000        
  0.000000000000000E+000  0.000000000000000E+000  0.000000000000000E+000        
  0.000000000000000E+000                                                        
   192.300000000000       5.242300000000000E-002 -1.215600000000000E-002        
  0.000000000000000E+000  0.000000000000000E+000  0.000000000000000E+000        
  0.000000000000000E+000  0.000000000000000E+000  0.000000000000000E+000        
  0.000000000000000E+000                                                        
   69.3200000000000       0.145921000000000      -3.626100000000000E-002        
  0.000000000000000E+000  0.000000000000000E+000  0.000000000000000E+000        
  0.000000000000000E+000  0.000000000000000E+000  0.000000000000000E+000        
  0.000000000000000E+000                                                        
   26.9700000000000       0.305258000000000      -8.299200000000000E-002        
  0.000000000000000E+000  0.000000000000000E+000  0.000000000000000E+000        
  0.000000000000000E+000  0.000000000000000E+000  0.000000000000000E+000        
  0.000000000000000E+000                                                        
   11.1000000000000       0.398508000000000      -0.152090000000000             
  0.000000000000000E+000  0.000000000000000E+000  0.000000000000000E+000        
  0.000000000000000E+000  0.000000000000000E+000  0.000000000000000E+000        
  0.000000000000000E+000                                                        
   4.68200000000000       0.216980000000000      -0.115331000000000             
  0.000000000000000E+000  0.000000000000000E+000  0.000000000000000E+000        
  0.000000000000000E+000  0.000000000000000E+000  0.000000000000000E+000        
  0.000000000000000E+000                                                        
   1.42800000000000       1.759400000000000E-002  0.288979000000000             
   1.00000000000000       0.000000000000000E+000  0.000000000000000E+000        
  0.000000000000000E+000  0.000000000000000E+000  0.000000000000000E+000        
  0.000000000000000E+000                                                        
  0.554700000000000      -2.502000000000000E-003  0.586128000000000             
  0.000000000000000E+000   1.00000000000000       0.000000000000000E+000        
  0.000000000000000E+000  0.000000000000000E+000  0.000000000000000E+000        
  0.000000000000000E+000                                                        
  0.206700000000000       9.540000000000000E-004  0.277624000000000             
  0.000000000000000E+000  0.000000000000000E+000   1.00000000000000             
  0.000000000000000E+000  0.000000000000000E+000  0.000000000000000E+000        
  0.000000000000000E+000                                                        
   12.9740000000000       0.000000000000000E+000  0.000000000000000E+000        
  0.000000000000000E+000  0.000000000000000E+000  0.000000000000000E+000        
   1.00000000000000       0.000000000000000E+000  0.000000000000000E+000        
  0.000000000000000E+000                                                        
   34.9000000000000       0.000000000000000E+000  0.000000000000000E+000        
  0.000000000000000E+000  0.000000000000000E+000  0.000000000000000E+000        
  0.000000000000000E+000   1.00000000000000       0.000000000000000E+000        
  0.000000000000000E+000                                                        
   93.8810000000000       0.000000000000000E+000  0.000000000000000E+000        
  0.000000000000000E+000  0.000000000000000E+000  0.000000000000000E+000        
  0.000000000000000E+000  0.000000000000000E+000   1.00000000000000             
  0.000000000000000E+000                                                        
  6.959000000000000E-002  0.000000000000000E+000  0.000000000000000E+000        
  0.000000000000000E+000  0.000000000000000E+000  0.000000000000000E+000        
  0.000000000000000E+000  0.000000000000000E+000  0.000000000000000E+000        
   1.00000000000000                                                             
   10    8                                                                      
   63.4200000000000       6.044000000000000E-003  0.000000000000000E+000        
  0.000000000000000E+000  0.000000000000000E+000  0.000000000000000E+000        
  0.000000000000000E+000  0.000000000000000E+000  0.000000000000000E+000        
   14.6600000000000       4.179900000000000E-002  0.000000000000000E+000        
  0.000000000000000E+000  0.000000000000000E+000  0.000000000000000E+000        
  0.000000000000000E+000  0.000000000000000E+000  0.000000000000000E+000        
   4.45900000000000       0.161143000000000       0.000000000000000E+000        
  0.000000000000000E+000  0.000000000000000E+000  0.000000000000000E+000        
  0.000000000000000E+000  0.000000000000000E+000  0.000000000000000E+000        
   1.53100000000000       0.356731000000000        1.00000000000000             
  0.000000000000000E+000  0.000000000000000E+000  0.000000000000000E+000        
  0.000000000000000E+000  0.000000000000000E+000  0.000000000000000E+000        
  0.530200000000000       0.448309000000000       0.000000000000000E+000        
   1.00000000000000       0.000000000000000E+000  0.000000000000000E+000        
  0.000000000000000E+000  0.000000000000000E+000  0.000000000000000E+000        
  0.175000000000000       0.244940000000000       0.000000000000000E+000        
  0.000000000000000E+000   1.00000000000000       0.000000000000000E+000        
  0.000000000000000E+000  0.000000000000000E+000  0.000000000000000E+000        
   14.4750000000000       0.000000000000000E+000  0.000000000000000E+000        
  0.000000000000000E+000  0.000000000000000E+000   1.00000000000000             
  0.000000000000000E+000  0.000000000000000E+000  0.000000000000000E+000        
   42.7300000000000       0.000000000000000E+000  0.000000000000000E+000        
  0.000000000000000E+000  0.000000000000000E+000  0.000000000000000E+000        
   1.00000000000000       0.000000000000000E+000  0.000000000000000E+000        
   126.140000000000       0.000000000000000E+000  0.000000000000000E+000        
  0.000000000000000E+000  0.000000000000000E+000  0.000000000000000E+000        
  0.000000000000000E+000   1.00000000000000       0.000000000000000E+000        
  5.348000000000000E-002  0.000000000000000E+000  0.000000000000000E+000        
  0.000000000000000E+000  0.000000000000000E+000  0.000000000000000E+000        
  0.000000000000000E+000  0.000000000000000E+000   1.00000000000000             
    6    6                                                                      
   3.77500000000000        1.00000000000000       0.000000000000000E+000        
  0.000000000000000E+000  0.000000000000000E+000  0.000000000000000E+000        
  0.000000000000000E+000                                                        
   1.30000000000000       0.000000000000000E+000   1.00000000000000             
  0.000000000000000E+000  0.000000000000000E+000  0.000000000000000E+000        
  0.000000000000000E+000                                                        
  0.444000000000000       0.000000000000000E+000  0.000000000000000E+000        
   1.00000000000000       0.000000000000000E+000  0.000000000000000E+000        
  0.000000000000000E+000                                                        
   14.9270000000000       0.000000000000000E+000  0.000000000000000E+000        
  0.000000000000000E+000   1.00000000000000       0.000000000000000E+000        
  0.000000000000000E+000                                                        
   57.5440000000000       0.000000000000000E+000  0.000000000000000E+000        
  0.000000000000000E+000  0.000000000000000E+000   1.00000000000000             
  0.000000000000000E+000                                                        
  0.154000000000000       0.000000000000000E+000  0.000000000000000E+000        
  0.000000000000000E+000  0.000000000000000E+000  0.000000000000000E+000        
   1.00000000000000                                                             
    4    4                                                                      
   2.66600000000000        1.00000000000000       0.000000000000000E+000        
  0.000000000000000E+000  0.000000000000000E+000                                
  0.859000000000000       0.000000000000000E+000   1.00000000000000             
  0.000000000000000E+000  0.000000000000000E+000                                
   26.4830000000000       0.000000000000000E+000  0.000000000000000E+000        
   1.00000000000000       0.000000000000000E+000                                
  0.324000000000000       0.000000000000000E+000  0.000000000000000E+000        
  0.000000000000000E+000   1.00000000000000                                     
    2    2                                                                      
   1.84600000000000        1.00000000000000       0.000000000000000E+000        
  0.714000000000000       0.000000000000000E+000   1.00000000000000             
FINISH                                                                          
 
********************************************************************************
 ONE- AND TWO-ELECTRON INTEGRALS OVER SYMMETRY-ADAPTED AOS ARE CALCULATED.

  SPHERICAL HARMONICS ARE USED.
  
  INTEGRALS LESS THAN  0.10E-13 ARE NEGLECTED.

  NUCLEAR REPULSION ENERGY :   22.5131848438 A.U.
  @MOLECU-I, ONE ELECTRON INTEGRALS (CPU/WALL):        0.08/       0.10 SECONDS.
  @TWOEL-I,    4596335 INTEGRALS OF SYMMETRY TYPE  I I I I
  @TWOEL-I,   19726989 INTEGRALS OF SYMMETRY TYPE  I J I J
  @TWOEL-I,   10395776 INTEGRALS OF SYMMETRY TYPE  I I J J
  @TWOEL-I,   14595741 INTEGRALS OF SYMMETRY TYPE  I J K L
  @TWOEL-I, TOTAL NUMBER OF 2-E INTEGRALS   49314841.
  @MOLECU-I, TWO ELECTRON INTEGRALS (CPU/WALL):      241.06/      32.90 SECONDS.
 @CHECKOUT-I, Total execution time (CPU/WALL):      241.17/      33.04 seconds.

Running with 14 threads/proc

--executable xvmol finished with status     0 in       33.11 seconds (walltime).
 --invoking executable--
/nfs/workspaces/public/cfour_mpi/bin/xvmol2ja
 @GETMEM-I,  Allocated    3814 MB of main memory.
 @CHECKOUT-I, Total execution time (CPU/WALL):        0.18/       0.05 seconds.
--executable xvmol2ja finished with status     0 in        0.08 seconds (walltime).
 --invoking executable--
/nfs/workspaces/public/cfour_mpi/bin/xvprop
 @GETMEM-I,  Allocated    3814 MB of main memory.
   Property integrals will be calculated.
    --------------------------------------------------------------
                                   Property evaluated at 
    Property type                X             Y             Z
    --------------------------------------------------------------
    Dipole moment               ----          ----          ----  
    Quadrupole moment           ----          ----          ----  
    Octopole moment             ----          ----          ----  
    Relativisitic corr.         ----          ----          ----  
    Second moment            0.0000000     0.0000000     0.0000000
    Electron density         0.0000000     0.0000000     1.2792265
    Electron density         0.0000000     0.0000000    -0.8528575
    Field gradient           0.0000000     0.0000000     1.2792265
    Field gradient           0.0000000     0.0000000    -0.8528575
    Potential                0.0000000     0.0000000     1.2792265
    Potential                0.0000000     0.0000000    -0.8528575
    --------------------------------------------------------------
 @CHECKOUT-I, Total execution time (CPU/WALL):        1.47/       1.50 seconds.
--executable xvprop finished with status     0 in        1.53 seconds (walltime).
 --invoking executable--
/nfs/workspaces/public/cfour_mpi/bin/xvscf
  There are  218 functions in the AO basis.

  There are 4 irreducible representations.

       Irrep        # of functions
         1                 86
         2                 52
         3                 52
         4                 28


  Parameters for SCF calculation: 
        SCF reference function:  RHF  
  Maximum number of iterations:  150
     Full symmetry point group: CXv 
     Computational point group: C2v 
        Initial density matrix: MOREAD                 
     SCF convergence tolerance: 10**(-10)
  DIIS convergence acceleration:  ON
          Latest start for DIIS:   8
                     DIIS order:   6

  Memory information:    2523578 words required.
  Fock matrices are constructed from AO integral file.
 @GETMEM-I,  Allocated      19 MB of main memory.
  Initialization and symmetry analysis required      0.002 seconds.

  Adding electric field perturbation to one-electron Hamiltonian.
  Field direction     : Z
  Field strength      : -0.0002000 a.u.

  @INITGES-I, Occupancies from core Hamiltonian:

          Alpha population by irrep:   5    1    1    0
           Beta population by irrep:   5    1    1    0


 total no. of electrons in initial guess :  0.000000000000000E+000
  --------------------------------------------------------------------
  Iteration         Total Energy            Largest Density Difference
  --------------------------------------------------------------------
       0            22.513355343659796              0.0000000000D+00
   current occupation vector 
     5  1  1  0
     5  1  1  0
       1           -91.790998167631102              0.1871575313D+02
   current occupation vector 
     5  1  1  0
     5  1  1  0
       2           -96.469344692942528              0.2255664380D+02
   current occupation vector 
     5  1  1  0
     5  1  1  0
       3          -103.357689786818170              0.2254605060D+02
   current occupation vector 
     5  1  1  0
     5  1  1  0
       4          -100.410364062705398              0.7592347588D+01
   current occupation vector 
     5  1  1  0
     5  1  1  0
       5          -103.466755379672804              0.7397992458D+01
   current occupation vector 
     5  1  1  0
     5  1  1  0
       6          -100.524167432783329              0.5810247183D+01
   current occupation vector 
     5  1  1  0
     5  1  1  0
       7          -103.251360959546730              0.5595802923D+01
   current occupation vector 
     5  1  1  0
     5  1  1  0
       8          -100.269347868466866              0.5580564906D+01
   current occupation vector 
     5  1  1  0
     5  1  1  0
       9          -110.828116715764040              0.4182980518D+01
   current occupation vector 
     5  1  1  0
     5  1  1  0
      10          -112.305434768293551              0.9135448258D+00
   current occupation vector 
     5  1  1  0
     5  1  1  0
      11          -112.774848182476703              0.4957235208D+00
   current occupation vector 
     5  1  1  0
     5  1  1  0
      12          -112.788759469921430              0.1044824618D+00
   current occupation vector 
     5  1  1  0
     5  1  1  0
      13          -112.789176607657353              0.2303883952D-01
   current occupation vector 
     5  1  1  0
     5  1  1  0
      14          -112.789257273505271              0.1364869203D-01
   current occupation vector 
     5  1  1  0
     5  1  1  0
      15          -112.789260687214792              0.3688249653D-02
   current occupation vector 
     5  1  1  0
     5  1  1  0
      16          -112.789260725147201              0.3282131912D-03
   current occupation vector 
     5  1  1  0
     5  1  1  0
      17          -112.789260726082389              0.3626556000D-04
   current occupation vector 
     5  1  1  0
     5  1  1  0
      18          -112.789260726110157              0.6181692789D-05
   current occupation vector 
     5  1  1  0
     5  1  1  0
      19          -112.789260726111920              0.1179969485D-05
   current occupation vector 
     5  1  1  0
     5  1  1  0
      20          -112.789260726109845              0.2050303158D-06
   current occupation vector 
     5  1  1  0
     5  1  1  0
      21          -112.789260726110214              0.3335012710D-07
   current occupation vector 
     5  1  1  0
     5  1  1  0
      22          -112.789260726110868              0.8288974840D-08
   current occupation vector 
     5  1  1  0
     5  1  1  0
      23          -112.789260726111010              0.4702079837D-08
   current occupation vector 
     5  1  1  0
     5  1  1  0
      24          -112.789260726110868              0.1203359634D-09
   current occupation vector 
     5  1  1  0
     5  1  1  0
      25          -112.789260726109362              0.2314219927D-09
   current occupation vector 
     5  1  1  0
     5  1  1  0
      26          -112.789260726111209              0.2052336079D-09
   current occupation vector 
     5  1  1  0
     5  1  1  0
      27          -112.789260726111067              0.1864308430D-09
   current occupation vector 
     5  1  1  0
     5  1  1  0
      28          -112.789260726110584              0.3028009454D-08
   current occupation vector 
     5  1  1  0
     5  1  1  0
      29          -112.789260726110840              0.2317585956D-08
   current occupation vector 
     5  1  1  0
     5  1  1  0
      30          -112.789260726108992              0.9651142663D-09
   current occupation vector 
     5  1  1  0
     5  1  1  0
      31          -112.789260726111095              0.2318472081D-09
   current occupation vector 
     5  1  1  0
     5  1  1  0
      32          -112.789260726110840              0.1854162102D-09
   current occupation vector 
     5  1  1  0
     5  1  1  0
      33          -112.789260726110697              0.3565539565D-09
   current occupation vector 
     5  1  1  0
     5  1  1  0
      34          -112.789260726110697              0.2947718285D-09
   current occupation vector 
     5  1  1  0
     5  1  1  0
      35          -112.789260726109504              0.1832702878D-09
   current occupation vector 
     5  1  1  0
     5  1  1  0
      36          -112.789260726110157              0.1936539817D-09
   current occupation vector 
     5  1  1  0
     5  1  1  0

  SCF has converged.

 Density matrix saved to file den.dat
 total electron number:   14.0000000000002     
     E(SCF)=      -112.789260726111067              0.5750806081D-10

  Eigenvector printing suppressed.

 @PUTMOS-I, Writing converged MOs to NEWMOS. 
 @PUTMOS-I, Symmetry   1 Full Blocks 21 Partial Blocksize   2
 @PUTMOS-I, Symmetry   2 Full Blocks 13 Partial Blocksize   0
 @PUTMOS-I, Symmetry   3 Full Blocks 13 Partial Blocksize   0
 @PUTMOS-I, Symmetry   4 Full Blocks  7 Partial Blocksize   0
 @PUTFOCK-I, Writing converged Fock matrix to NEWFOCK. 
 @PUTFOCK-I, Symmetry   1 Full Blocks 21 Partial Blocksize   2
 @PUTFOCK-I, Symmetry   2 Full Blocks 13 Partial Blocksize   0
 @PUTFOCK-I, Symmetry   3 Full Blocks 13 Partial Blocksize   0
 @PUTFOCK-I, Symmetry   4 Full Blocks  7 Partial Blocksize   0


 
  ORBITAL EIGENVALUES (ALPHA)  (1H = 27.2113834 eV)

       MO #        E(hartree)               E(eV)           FULLSYM    COMPSYM
       ----   --------------------   --------------------   -------   ---------
    1     1         -20.6653483551        -562.3327171841     SG+        A1 (1)
    2     2         -11.3604727284        -309.1341790169     SG+        A1 (1)
    3     3          -1.5217842375         -41.4098543374     SG+        A1 (1)
    4     4          -0.8046383819         -21.8953235081     SG+        A1 (1)
    5   139          -0.6403744138         -17.4254736926      PI        B2 (3)
    6    87          -0.6403744138         -17.4254736926      PI        B1 (2)
    7     5          -0.5551947493         -15.1076171840     SG+        A1 (1)
  +++++++++++++++++++++++++++++++++++++++++++++++++++++++++++++++++++++++++++++
    8     6           0.0605141296           1.6466731815     SG+        A1 (1)
    9   140           0.0623496188           1.6966193828      PI        B2 (3)
   10    88           0.0623496188           1.6966193828      PI        B1 (2)
   11     7           0.0736808168           2.0049569552     SG+        A1 (1)
   12   141           0.1411785535           3.8416637475      PI        B2 (3)
   13    89           0.1411785535           3.8416637475      PI        B1 (2)
   14     8           0.1566723496           4.2632713721     SG+        A1 (1)
   15   142           0.1668938037           4.5414112799      PI        B2 (3)
   16    90           0.1668938037           4.5414112799      PI        B1 (2)
   17   191           0.2276253868           6.1940016717      DE        A2 (4)
   18     9           0.2276253868           6.1940016717      DE        A1 (1)
   19    10           0.2281123189           6.2072517668     SG+        A1 (1)
   20    11           0.3009659925           8.1897010134     SG+        A1 (1)
   21   143           0.3202837040           8.7153626653      PI        B2 (3)
   22    91           0.3202837040           8.7153626653      PI        B1 (2)
   23    12           0.3912715298          10.6470396113     SG+        A1 (1)
   24   144           0.3958092424          10.7705170485      PI        B2 (3)
   25    92           0.3958092424          10.7705170485      PI        B1 (2)
   26    13           0.5086298052          13.8405206382     SG+        A1 (1)
   27   192           0.5346998058          14.5499214189      DE        A2 (4)
   28    14           0.5346998058          14.5499214189      DE        A1 (1)
   29   145           0.6234065015          16.9637533264      PI        B2 (3)
   30    93           0.6234065015          16.9637533264      PI        B1 (2)
   31    15           0.6452135574          17.5571534846     SG+        A1 (1)
   32   146           0.7485470507          20.3690007901      PH        B2 (3)
   33    94           0.7485470507          20.3690007901      PH        B1 (2)
   34    16           0.7683456594          20.9077483222      DE        A1 (1)
   35   193           0.7683456594          20.9077483222      DE        A2 (4)
   36    17           0.7799293392          21.2229562749     SG+        A1 (1)
   37   147           0.8230831155          22.3972302255      PI        B2 (3)
   38    95           0.8230831155          22.3972302255      PI        B1 (2)
   39    18           0.8722670526          23.7355931965     SG+        A1 (1)
   40   148           0.8810344155          23.9741652698      PI        B2 (3)
   41    96           0.8810344155          23.9741652698      PI        B1 (2)
   42   194           0.8909474815          24.2439135085      DE        A2 (4)
   43    19           0.8909474815          24.2439135085      DE        A1 (1)
   44    20           0.9102561234          24.7693283662     SG+        A1 (1)
   45   149           1.0766276731          29.2965283907      PI        B2 (3)
   46    97           1.0766276731          29.2965283907      PI        B1 (2)
   47    21           1.1957097831          32.5369173438     SG+        A1 (1)
   48   150           1.4476332390          39.3921030901      PH        B2 (3)
   49    98           1.4476332390          39.3921030901      PH        B1 (2)
   50    22           1.4741912963          40.1147845684     SG+        A1 (1)
   51   195           1.5177489892          41.3000496508      DE        A2 (4)
   52    23           1.5177489892          41.3000496509      DE        A1 (1)
   53   151           1.5538828578          42.2833022032      PI        B2 (3)
   54    99           1.5538828578          42.2833022032      PI        B1 (2)
   55    24           1.6674885004          45.3746688998     SG+        A1 (1)
   56   196           1.7690455122          48.1381756845      DE        A2 (4)
   57    25           1.7690455122          48.1381756845      DE        A1 (1)
   58    26           1.7707763612          48.1852744803     SG+        A1 (1)
   59   152           1.8056571731          49.1344296260      PI        B2 (3)
   60   100           1.8056571731          49.1344296260      PI        B1 (2)
   61   153           1.9685212224          53.5661857140      PI        B2 (3)
   62   101           1.9685212224          53.5661857141      PI        B1 (2)
   63   197           2.1054562727          57.2923778675      PI        A2 (4)
   64    27           2.1054562727          57.2923778675      PI        A1 (1)
   65    28           2.1352322138          58.1026224169     SG+        A1 (1)
   66   198           2.1958314968          59.7516127421      DE        A2 (4)
   67    29           2.1958314968          59.7516127421      DE        A1 (1)
   68   102           2.2516879107          61.2715430340      PH        B1 (2)
   69   154           2.2516879107          61.2715430340      PH        B2 (3)
   70    30           2.3154859427          63.0075757445     SG+        A1 (1)
   71   155           2.3247284247          63.2590764666      PI        B2 (3)
   72   103           2.3247284247          63.2590764666      PI        B1 (2)
   73   156           2.3630661409          64.3022987590      PH        B2 (3)
   74   104           2.3630661409          64.3022987590      PH        B1 (2)
   75   199           2.3641935430          64.3329769291      DE        A2 (4)
   76    31           2.3641935430          64.3329769291      DE        A1 (1)
   77    32           2.4865046728          67.6612319780     SG+        A1 (1)
   78   105           2.5979118569          70.6927755773      PI        B1 (2)
   79   157           2.5979118569          70.6927755773      PI        B2 (3)
   80   158           2.8322060089          77.0682435747      PI        B2 (3)
   81   106           2.8322060089          77.0682435747      PI        B1 (2)
   82    33           2.9426036337          80.0723156710     SG+        A1 (1)
   83   200           3.0093272896          81.8879586534      DE        A2 (4)
   84    34           3.0093272896          81.8879586534      DE        A1 (1)
   85    35           3.4750062240          94.5597266778     SG+        A1 (1)
   86    36           3.7237540205         101.3284983389      PI        A1 (1)
   87   201           3.7237540205         101.3284983389      PI        A2 (4)
   88   159           3.7508495636         102.0658055502      PI        B2 (3)
   89   107           3.7508495636         102.0658055502      PI        B1 (2)
   90    37           3.9473323906         107.4123750867     SG+        A1 (1)
   91   108           4.0827415987         111.0970469644      PH        B1 (2)
   92   160           4.0827415987         111.0970469644      PH        B2 (3)
   93   202           4.1766033895         113.6511561407      DE        A2 (4)
   94    38           4.1766033895         113.6511561408      DE        A1 (1)
   95   161           4.2106626518         114.5779557873      PI        B2 (3)
   96   109           4.2106626518         114.5779557873      PI        B1 (2)
   97    39           4.2723670626         116.2570181671     SG+        A1 (1)
   98   110           4.2841688855         116.5781620945      PH        B1 (2)
   99   162           4.2841688855         116.5781620945      PH        B2 (3)
  100   203           4.3818714568         119.2367842199      DE        A2 (4)
  101    40           4.3818714568         119.2367842199      DE        A1 (1)
  102    41           4.5353548487         123.4132796430     SG+        A1 (1)
  103   163           4.7637686242         129.6287344615      PI        B2 (3)
  104   111           4.7637686242         129.6287344615      PI        B1 (2)
  105    42           5.0137718420         136.4316678722     SG+        A1 (1)
  106   164           5.1305640552         139.6097455654      PI        B2 (3)
  107   112           5.1305640552         139.6097455654      PI        B1 (2)
  108    43           5.1523770620         140.2033076565      DE        A1 (1)
  109   204           5.1523770620         140.2033076565      DE        A2 (4)
  110   165           5.8164143687         158.2726814002      PI        B2 (3)
  111   113           5.8164143687         158.2726814002      PI        B1 (2)
  112    44           5.8538126467         159.2903402816     SG+        A1 (1)
  113    45           5.9009116363         160.5719689458      PI        A1 (1)
  114   205           5.9009116363         160.5719689458      PI        A2 (4)
  115   114           6.1363756357         166.9792701096      PH        B1 (2)
  116   166           6.1363756357         166.9792701096      PH        B2 (3)
  117    46           6.2324058600         169.5923853610     SG+        A1 (1)
  118   206           6.3056387767         171.5851543333      DE        A2 (4)
  119    47           6.3056387767         171.5851543333      DE        A1 (1)
  120   167           6.3283653026         172.2035745451      PI        B2 (3)
  121   115           6.3283653026         172.2035745451      PI        B1 (2)
  122   116           6.4434408781         175.3349401497      PH        B1 (2)
  123   168           6.4434408781         175.3349401497      PH        B2 (3)
  124   207           6.5906453926         179.3405786317      DE        A2 (4)
  125    48           6.5906453926         179.3405786318      DE        A1 (1)
  126    49           7.0559415130         192.0019297575     SG+        A1 (1)
  127    50           7.3512604562         200.0379667456      DE        A1 (1)
  128   208           7.3512604562         200.0379667457      DE        A2 (4)
  129   169           7.4940361293         203.9230903267      PI        B2 (3)
  130   117           7.4940361293         203.9230903267      PI        B1 (2)
  131    51           7.7956795724         212.1312257079     SG+        A1 (1)
  132    52           8.2567721785         224.6781933954     SG+        A1 (1)
  133   118           8.4903983022         231.0354834198      PI        B1 (2)
  134   170           8.4903983022         231.0354834198      PI        B2 (3)
  135   171          10.1226474788         275.4512415681      PI        B2 (3)
  136   119          10.1226474788         275.4512415682      PI        B1 (2)
  137    53          10.5211810087         286.2958902477     SG+        A1 (1)
  138    54          10.6018402654         288.4907402063      PI        A1 (1)
  139   209          10.6018402654         288.4907402063      PI        A2 (4)
  140   120          10.8825924368         296.1303951840      PH        B1 (2)
  141   172          10.8825924368         296.1303951840      PH        B2 (3)
  142   210          11.1356204930         303.0156386308      DE        A2 (4)
  143    55          11.1356204930         303.0156386308      DE        A1 (1)
  144    56          11.1576849187         303.6160421799     SG+        A1 (1)
  145   121          11.3739265809         309.5002769559      PI        B1 (2)
  146   173          11.3739265809         309.5002769559      PI        B2 (3)
  147    57          11.6240880809         316.3075174449     SG+        A1 (1)
  148   174          11.8548993983         322.5882126953      PH        B2 (3)
  149   122          11.8548993983         322.5882126953      PH        B1 (2)
  150   211          12.2931091123         334.5125052319      DE        A2 (4)
  151    58          12.2931091123         334.5125052321      DE        A1 (1)
  152   123          12.6475463044         344.1572315579      PI        B1 (2)
  153   175          12.6475463044         344.1572315579      PI        B2 (3)
  154    59          12.8786976361         350.4471790696      DE        A1 (1)
  155   212          12.8786976361         350.4471790696      DE        A2 (4)
  156    60          13.3186900396         362.4199810526     SG+        A1 (1)
  157   176          14.1878652315         386.0714404405      PI        B2 (3)
  158   124          14.1878652315         386.0714404406      PI        B1 (2)
  159    61          15.6008835043         424.5216224146     SG+        A1 (1)
  160    62          18.0447442244         491.0224534457     SG+        A1 (1)
  161   177          19.4159431312         528.3346726146      PI        B2 (3)
  162   125          19.4159431312         528.3346726147      PI        B1 (2)
  163    63          20.6806480608         562.7490433432     SG+        A1 (1)
  164   213          26.5391013933         722.1656631035      DE        A2 (4)
  165    64          26.5391013933         722.1656631036      DE        A1 (1)
  166   178          27.0290738403         735.4984912160      PI        B2 (3)
  167   126          27.0290738403         735.4984912160      PI        B1 (2)
  168    65          28.2466781383         768.6311885973     SG+        A1 (1)
  169   179          33.7975549392         919.6782254344      PI        B2 (3)
  170   127          33.7975549393         919.6782254350      PI        B1 (2)
  171    66          35.0153430756         952.8159253137     SG+        A1 (1)
  172    67          36.8473176197        1002.6664870103     SG+        A1 (1)
  173   214          47.1234981524        1282.2955753730      DE        A2 (4)
  174    68          47.1234981524        1282.2955753730      DE        A1 (1)
  175   128          47.7277615024        1298.7384170669      PI        B1 (2)
  176   180          47.7277615024        1298.7384170669      PI        B2 (3)
  177    69          48.5921405468        1322.2593666464     SG+        A1 (1)
  178    70          64.2380076560        1748.0050551799     SG+        A1 (1)
  179   181          66.8591475085        1819.3298966521      PI        B2 (3)
  180   129          66.8591475085        1819.3298966521      PI        B1 (2)
  181    71          67.8348760236        1845.8808193691     SG+        A1 (1)
  182   130          98.6769257795        2685.1356601206      PH        B1 (2)
  183   182          98.6769257795        2685.1356601206      PH        B2 (3)
  184   215          98.6998518191        2685.7595093733      DE        A2 (4)
  185    72          98.6998518191        2685.7595093733      DE        A1 (1)
  186   183          98.7690820291        2687.6433591589      PI        B2 (3)
  187   131          98.7690820291        2687.6433591589      PI        B1 (2)
  188    73          98.7803719446        2687.9505733784     SG+        A1 (1)
  189   132         103.2841785177        2810.5053808002      PH        B1 (2)
  190   184         103.2841785177        2810.5053808002      PH        B2 (3)
  191   216         103.3351895423        2811.8934613477      DE        A2 (4)
  192    74         103.3351895425        2811.8934613520      DE        A1 (1)
  193   133         103.3628584640        2812.6463709841      PI        B1 (2)
  194   185         103.3628584640        2812.6463709841      PI        B2 (3)
  195    75         103.4259987358        2814.3645051272     SG+        A1 (1)
  196    76         115.1912621703        3134.5135992455      DE        A1 (1)
  197   217         115.1912621703        3134.5135992455      DE        A2 (4)
  198   186         115.4303739852        3141.0201625156      PI        B2 (3)
  199   134         115.4303739852        3141.0201625157      PI        B1 (2)
  200    77         116.0482637564        3157.8337979790     SG+        A1 (1)
  201   187         117.0459981046        3184.9835298588      PI        B2 (3)
  202   135         117.0459981046        3184.9835298594      PI        B1 (2)
  203    78         118.0847985486        3213.2507270171     SG+        A1 (1)
  204    79         122.9346880703        3345.2229302401     SG+        A1 (1)
  205   218         198.5800736773        5403.6385204329      DE        A2 (4)
  206    80         198.5800736773        5403.6385204330      DE        A1 (1)
  207   136         198.9076007329        5412.5509847178      PI        B1 (2)
  208   188         198.9076007329        5412.5509847183      PI        B2 (3)
  209    81         199.3408496283        5424.3402865167     SG+        A1 (1)
  210    82         216.7154421644        5897.1269854370     SG+        A1 (1)
  211   189         225.2708133724        6129.9304715073      PI        B2 (3)
  212   137         225.2708133724        6129.9304715074      PI        B1 (2)
  213    83         226.0694837269        6151.6633967340     SG+        A1 (1)
  214   190         395.5040236430       10762.2116235918      PI        B2 (3)
  215   138         395.5040236430       10762.2116235925      PI        B1 (2)
  216    84         396.3603137740       10785.5124626480     SG+        A1 (1)
  217    85         509.4650850971       13863.2497594906     SG+        A1 (1)
  218    86         895.5469105999       24369.0703370187     SG+        A1 (1)


  VSCF finished.

 @CHECKOUT-I, Total execution time (CPU/WALL):       67.15/      16.29 seconds.
--executable xvscf finished with status     0 in       16.33 seconds (walltime).
 --invoking executable--
/nfs/workspaces/public/cfour_mpi/bin/xvtran
 @GETMEM-I,  Allocated    3814 MB of main memory.
  Full RHF integral transformation
  Transformation of IIII integrals :
  1 pass through the AO integral file was required.
     4596335 AO integrals were read.
     8837897 MO integrals were written to HF2.
  Transformation of IIJJ integrals :
  1 pass through the AO integral file was required.
    10395776 AO integrals were read.
    14647675 MO integrals were written to HF2.
  Transformation of IJIJ integrals :
  1 pass through the AO integral file was required.
    19726989 AO integrals were read.
    27609843 MO integrals were written to HF2.
  Transformation of IJKL integrals :
  1 pass through the AO integral file was required.
    14595741 AO integrals were read.
    18642512 MO integrals were written to HF2.
  Summary of active molecular orbitals: 
------------------------------------------------------------------------
 
  Index      Eigenvalue    Symmetry    Index      Eigenvalue    Symmetry
------------------------------------------------------------------------
     1       -20.6653484        1       110         4.2106627        2
     2       -11.3604727        1       111         4.2841689        2
     3        -1.5217842        1       112         4.7637686        2
     4        -0.8046384        1       113         5.1305641        2
     5        -0.5551947        1       114         5.8164144        2
     6        -0.6403744        2       115         6.1363756        2
     7        -0.6403744        3       116         6.3283653        2
     8         0.0605141        1       117         6.4434409        2
     9         0.0736808        1       118         7.4940361        2
    10         0.1566723        1       119         8.4903983        2
    11         0.2276254        1       120        10.1226475        2
    12         0.2281123        1       121        10.8825924        2
    13         0.3009660        1       122        11.3739266        2
    14         0.3912715        1       123        11.8548994        2
    15         0.5086298        1       124        12.6475463        2
    16         0.5346998        1       125        14.1878652        2
    17         0.6452136        1       126        19.4159431        2
    18         0.7683457        1       127        27.0290738        2
    19         0.7799293        1       128        33.7975549        2
    20         0.8722671        1       129        47.7277615        2
    21         0.8909475        1       130        66.8591475        2
    22         0.9102561        1       131        98.6769258        2
    23         1.1957098        1       132        98.7690820        2
    24         1.4741913        1       133       103.2841785        2
    25         1.5177490        1       134       103.3628585        2
    26         1.6674885        1       135       115.4303740        2
    27         1.7690455        1       136       117.0459981        2
    28         1.7707764        1       137       198.9076007        2
    29         2.1054563        1       138       225.2708134        2
    30         2.1352322        1       139       395.5040236        2
    31         2.1958315        1       140         0.0623496        3
    32         2.3154859        1       141         0.1411786        3
    33         2.3641935        1       142         0.1668938        3
    34         2.4865047        1       143         0.3202837        3
    35         2.9426036        1       144         0.3958092        3
    36         3.0093273        1       145         0.6234065        3
    37         3.4750062        1       146         0.7485471        3
    38         3.7237540        1       147         0.8230831        3
    39         3.9473324        1       148         0.8810344        3
    40         4.1766034        1       149         1.0766277        3
    41         4.2723671        1       150         1.4476332        3
    42         4.3818715        1       151         1.5538829        3
    43         4.5353548        1       152         1.8056572        3
    44         5.0137718        1       153         1.9685212        3
    45         5.1523771        1       154         2.2516879        3
    46         5.8538126        1       155         2.3247284        3
    47         5.9009116        1       156         2.3630661        3
    48         6.2324059        1       157         2.5979119        3
    49         6.3056388        1       158         2.8322060        3
    50         6.5906454        1       159         3.7508496        3
    51         7.0559415        1       160         4.0827416        3
    52         7.3512605        1       161         4.2106627        3
    53         7.7956796        1       162         4.2841689        3
    54         8.2567722        1       163         4.7637686        3
    55        10.5211810        1       164         5.1305641        3
    56        10.6018403        1       165         5.8164144        3
    57        11.1356205        1       166         6.1363756        3
    58        11.1576849        1       167         6.3283653        3
    59        11.6240881        1       168         6.4434409        3
    60        12.2931091        1       169         7.4940361        3
    61        12.8786976        1       170         8.4903983        3
    62        13.3186900        1       171        10.1226475        3
    63        15.6008835        1       172        10.8825924        3
    64        18.0447442        1       173        11.3739266        3
    65        20.6806481        1       174        11.8548994        3
    66        26.5391014        1       175        12.6475463        3
    67        28.2466781        1       176        14.1878652        3
    68        35.0153431        1       177        19.4159431        3
    69        36.8473176        1       178        27.0290738        3
    70        47.1234982        1       179        33.7975549        3
    71        48.5921405        1       180        47.7277615        3
    72        64.2380077        1       181        66.8591475        3
    73        67.8348760        1       182        98.6769258        3
    74        98.6998518        1       183        98.7690820        3
    75        98.7803719        1       184       103.2841785        3
    76       103.3351895        1       185       103.3628585        3
    77       103.4259987        1       186       115.4303740        3
    78       115.1912622        1       187       117.0459981        3
    79       116.0482638        1       188       198.9076007        3
    80       118.0847985        1       189       225.2708134        3
    81       122.9346881        1       190       395.5040236        3
    82       198.5800737        1       191         0.2276254        4
    83       199.3408496        1       192         0.5346998        4
    84       216.7154422        1       193         0.7683457        4
    85       226.0694837        1       194         0.8909475        4
    86       396.3603138        1       195         1.5177490        4
    87       509.4650851        1       196         1.7690455        4
    88       895.5469106        1       197         2.1054563        4
    89         0.0623496        2       198         2.1958315        4
    90         0.1411786        2       199         2.3641935        4
    91         0.1668938        2       200         3.0093273        4
    92         0.3202837        2       201         3.7237540        4
    93         0.3958092        2       202         4.1766034        4
    94         0.6234065        2       203         4.3818715        4
    95         0.7485471        2       204         5.1523771        4
    96         0.8230831        2       205         5.9009116        4
    97         0.8810344        2       206         6.3056388        4
    98         1.0766277        2       207         6.5906454        4
    99         1.4476332        2       208         7.3512605        4
   100         1.5538829        2       209        10.6018403        4
   101         1.8056572        2       210        11.1356205        4
   102         1.9685212        2       211        12.2931091        4
   103         2.2516879        2       212        12.8786976        4
   104         2.3247284        2       213        26.5391014        4
   105         2.3630661        2       214        47.1234982        4
   106         2.5979119        2       215        98.6998518        4
   107         2.8322060        2       216       103.3351895        4
   108         3.7508496        2       217       115.1912622        4
   109         4.0827416        2       218       198.5800737        4
------------------------------------------------------------------------
  -20.6653483550583       -11.3604727283697       -1.52178423745235     
 -0.804638381893768      -0.555194749266411      -0.640374413770102     
 -0.640374413770107       6.051412959504786E-002  7.368081679940862E-002
  0.156672349561152       0.227625386797562       0.228112318860199     
  0.300965992542667       0.391271529813439       0.508629805209769     
[...]
 Convergence information after     9 iterations: 
 Largest element of residual vector :  0.88241575E-05.
 Largest element of DIIS residual   :  0.47424907E-05.
 Convergence information after    10 iterations: 
 Largest element of residual vector :  0.50669479E-05.
 Largest element of DIIS residual   :  0.33970820E-05.
 Convergence information after    11 iterations: 
 Largest element of residual vector :  0.19520080E-05.
 Largest element of DIIS residual   :  0.73668563E-06.
 Convergence information after    12 iterations: 
 Largest element of residual vector :  0.79897010E-06.
 Largest element of DIIS residual   :  0.40530814E-06.
 Convergence information after    13 iterations: 
 Largest element of residual vector :  0.30580295E-06.
 Largest element of DIIS residual   :  0.21932227E-06.
 Convergence information after    14 iterations: 
 Largest element of residual vector :  0.16930069E-06.
 Largest element of DIIS residual   :  0.90041279E-07.
 Perturbed amplitude equations converged in    14 iterations.
  Dominant contributions to perturbed wavefunction:
    7    7  141   28   0.2148186285 ABAB
    7    7   28  141   0.2148186285 ABAB
    7    7  141   37   0.2022597030 ABAB
    7    7   37  141   0.2022597030 ABAB
    7    7  141   55   0.1790947089 ABAB
    7    7   55  141   0.1790947089 ABAB
    7    7  142   28   0.1594705639 ABAB
    7    7   28  142   0.1594705639 ABAB
    7    7  142   37   0.1480481548 ABAB
    7    7   37  142   0.1480481548 ABAB
    5    5  141   44   0.1458190032 ABAB
    5    5   44  141   0.1458190032 ABAB
    7    7  141   53  -0.1424160257 ABAB
    7    7   53  141  -0.1424160257 ABAB
    7    6   28   90   0.1413104036 ABAB
    6    7   90   28   0.1413104036 ABAB
    7    7  141   44   0.1395773526 ABAB
    7    7   44  141   0.1395773526 ABAB
    7    7  141   63   0.1361826599 ABAB
    7    7   63  141   0.1361826599 ABAB
  norm of converged amps    2.45053120956138     
 Starting iterative solution of the perturbed Lambda equations.
 The DIIS procedure is used to accelerate convergence.
 Convergence criterion is 10**(-7).
 Maximum number of iterations is 100.
 Convergence information after     1 iterations: 
 Largest element of residual vector : -0.67909998E-01.
 Largest element of DIIS residual   : -0.67909998E-01.
 Convergence information after     2 iterations: 
 Largest element of residual vector :  0.75644102E-02.
 Largest element of DIIS residual   :  0.51563422E-02.
 Convergence information after     3 iterations: 
 Largest element of residual vector : -0.43974174E-02.
 Largest element of DIIS residual   : -0.38203487E-02.
 Convergence information after     4 iterations: 
 Largest element of residual vector : -0.27179325E-02.
 Largest element of DIIS residual   : -0.21462442E-02.
 Convergence information after     5 iterations: 
 Largest element of residual vector : -0.15869559E-02.
 Largest element of DIIS residual   : -0.73536944E-03.
 Convergence information after     6 iterations: 
 Largest element of residual vector : -0.51491764E-03.
 Largest element of DIIS residual   :  0.12063164E-03.
 Convergence information after     7 iterations: 
 Largest element of residual vector : -0.99145173E-04.
 Largest element of DIIS residual   : -0.45296171E-04.
 Convergence information after     8 iterations: 
 Largest element of residual vector : -0.20209160E-04.
 Largest element of DIIS residual   :  0.19353956E-04.
 Convergence information after     9 iterations: 
 Largest element of residual vector :  0.72556467E-05.
 Largest element of DIIS residual   : -0.40639072E-05.
 Convergence information after    10 iterations: 
 Largest element of residual vector :  0.40976781E-05.
 Largest element of DIIS residual   :  0.28973074E-05.
 Convergence information after    11 iterations: 
 Largest element of residual vector :  0.15426078E-05.
 Largest element of DIIS residual   :  0.69335311E-06.
 Convergence information after    12 iterations: 
 Largest element of residual vector :  0.71420476E-06.
 Largest element of DIIS residual   :  0.47653000E-06.
 Convergence information after    13 iterations: 
 Largest element of residual vector :  0.35236025E-06.
 Largest element of DIIS residual   :  0.27619905E-06.
 Convergence information after    14 iterations: 
 Largest element of residual vector :  0.21054213E-06.
 Largest element of DIIS residual   :  0.10855426E-06.
 Convergence information after    15 iterations: 
 Largest element of residual vector :  0.75681987E-07.
 Largest element of DIIS residual   :  0.34522186E-07.
 Perturbed Lambda equations converged in    15 iterations.
  Dominant contributions to perturbed wavefunction:
    7    7  141   28   0.2024728056 ABAB
    7    7   28  141   0.2024728056 ABAB
    7    7  141   37   0.1916389382 ABAB
    7    7   37  141   0.1916389382 ABAB
    7    7  141   55   0.1673962778 ABAB
    7    7   55  141   0.1673962778 ABAB
    7    7  142   28   0.1520072014 ABAB
    7    7   28  142   0.1520072014 ABAB
    7    7  142   37   0.1417222226 ABAB
    7    7   37  142   0.1417222226 ABAB
    5    5  141   44   0.1399014060 ABAB
    5    5   44  141   0.1399014060 ABAB
    7    7  141   53  -0.1339955601 ABAB
    7    7   53  141  -0.1339955601 ABAB
    7    6   28   90   0.1312877464 ABAB
    6    7   90   28   0.1312877464 ABAB
    7    7  141   44   0.1290524924 ABAB
    7    7   44  141   0.1290524924 ABAB
    7    7  141   63   0.1288435961 ABAB
    7    7   63  141   0.1288435961 ABAB
        The DBOC first-order density matrix is being calculated 
             (Symmetry block 3, perturbation   2)
 term   7.04105776484875     
 final tnorm  0.887444081208259     
  norm contr. I: |<0|L dT/dx|0>|^2   0.000000000000000E+000
  norm contr. II: <0|[nabla(1+L)e-T][nabla e^T]|0>   7.04105776484875     
  total norm contribution   7.04105776484875     
 oo  1.061244745104672E-002
 vv  -46.9789930559272     
 vo  3.540919461418031E-002
  Correlated perturbed 1-el contribution to DBOC  -46.9329714138620       cm**-1
  SUM_I |dc_I/dx|^2 contribution to DBOC   23.5551459252424       cm**-1
 
 
  The total diagonal Born-Oppenheimer correction (DBOC) is:      0.0038713470 a.u.
  The total diagonal Born-Oppenheimer correction (DBOC) is:        849.662446 cm-1
 
 Total CC energy including DBOC  -113.281905503080     
 First-order density matrix is being calculated  (Symmetry block 3, perturbation   2)
 Calculation of the contributions of <pq||rs> to dI(i,j)/dx required   3.2 seconds.
 Calculation of the contributions of <pq||rs> to dI(a,b)/dx required  15.3 seconds.
 Calculation of the contributions of <pq||rs> to dI(i,a)/dx required   9.4 seconds.
 First-order Z-vector equations are solved for 1 perturbation.
 Convergence reached after  18 iterations.
        U*G(pq,rs) contribution is being calculated
             (Symmetry block 3, perturbation   2)

 CCSD contribution to force constants 

        0.0000000000        0.0000000000        0.0000000000
        0.0000000000        0.0000000000        0.0000000000
        0.0000000000        0.0000000000        0.0000000000
        0.0000000000        0.0000000000        0.0000000000
        0.0000000000        0.0000000000        0.0000000000
        0.0000000000        0.0000000000        0.0000000000
        0.0000000000        0.0000000000        0.0000000000
        0.0000000000        0.0000000000        0.0000000000
        0.0000000000        0.0000000000        0.0000000000
        0.0000000000        0.0000000000        0.0000000000
        0.0000000000        0.0000000000        0.0000000000
        0.0000000000       -1.9314787864        1.9314787864

 CCSD contribution to dipole derivatives 

        0.0000000000        0.0000000000        0.0000000000
        0.0000000000        0.0000000000        0.0000000000
        0.0000000000        0.0000000000        0.0000000000
        0.0000000000        0.0000000000       -0.0444355541
        0.0000000000        0.0000000000        0.0000000000
        0.0000000000        0.0000000000        0.0000000000
 @CHECKOUT-I, Total execution time (CPU/WALL):     1215.15/     482.50 seconds.
--executable xsdcc finished with status     0 in      482.78 seconds (walltime).
 --invoking executable--
/nfs/workspaces/public/cfour_mpi/bin/xanti
 @GETMEM-I,  Allocated    3814 MB of main memory.
 CCSD MO derivative gammas will be sorted to Mulliken order.
 @CHECKOUT-I, Total execution time (CPU/WALL):       13.94/      37.88 seconds.
--executable xanti finished with status     0 in       38.16 seconds (walltime).
 --invoking executable--
/nfs/workspaces/public/cfour_mpi/bin/xbcktrn
 @GETMEM-I,  Allocated    3814 MB of main memory.
 CCSD MO derivative gammas will be transformed to the AO basis.
 @CHECKOUT-I, Total execution time (CPU/WALL):       24.92/       8.16 seconds.
--executable xbcktrn finished with status     0 in        8.24 seconds (walltime).
 --invoking executable--
/nfs/workspaces/public/cfour_mpi/bin/xvdint
 @GETMEM-I,  Allocated    3814 MB of main memory.
 One- and two-electron integral derivatives are calculated
 for RHF-CC/MBPT hessians and dipole derivatives.
 Spherical gaussians are used.
  magnet F F
                    8722  records have been written to the Sort file.
  Total length of Sort file :             178609116  words.
 Evaluation of 2el integral derivatives

                      Two-electron integral gradient
                      ------------------------------

                         C #1 z     0.0000000000
                         O #2 z     0.0000000000


 C #1       0.0000000000           -0.6530842446            0.0000000000
 O #2       0.0000000000            0.6530842446            0.0000000000


 Evaluation of 2e integral derivatives required  367.72 seconds.
  contribution to Hessian
        0.0000000000        0.0000000000        0.0000000000
        0.0000000000       -0.6530842446        0.6530842446
 @CHECKOUT-I, Total execution time (CPU/WALL):      367.70/      74.68 seconds.
--executable xvdint finished with status     0 in       74.89 seconds (walltime).
 --invoking executable--
/nfs/workspaces/public/cfour_mpi/bin/xanti
 @GETMEM-I,  Allocated    3814 MB of main memory.
 CCSD MO gammas will be sorted to Mulliken order.
 @CHECKOUT-I, Total execution time (CPU/WALL):       18.01/      58.56 seconds.
--executable xanti finished with status     0 in       58.68 seconds (walltime).
 --invoking executable--
/nfs/workspaces/public/cfour_mpi/bin/xbcktrn
 @GETMEM-I,  Allocated    3814 MB of main memory.
 CCSD MO gammas will be transformed to the AO basis.
 @CHECKOUT-I, Total execution time (CPU/WALL):       29.73/       7.08 seconds.
--executable xbcktrn finished with status     0 in        7.14 seconds (walltime).
 --invoking executable--
/nfs/workspaces/public/cfour_mpi/bin/xvdint
 @GETMEM-I,  Allocated    3814 MB of main memory.
 One- and two-electron integral derivatives are calculated
 for RHF-CC/MBPT hessians and dipole derivatives.
 Spherical gaussians are used.
  magnet F F

                     Kinetic energy integral gradient
                     --------------------------------

                         C #1 z    -1.5071174275
                         O #2 z     1.5071174275


 C #1       0.0000000000            0.0000000000           -1.5071174275
 O #2       0.0000000000            0.0000000000            1.5071174275



                   Nuclear attraction integral gradient
                   ------------------------------------

                         C #1 z    23.6892021936
                         O #2 z   -23.6892021936


 C #1       0.0000000000            0.0000000000           23.6892021936
 O #2       0.0000000000            0.0000000000          -23.6892021936



                      Reorthonormalization gradient
                      -----------------------------

                         C #1 z     0.0000000000
                         O #2 z     0.0000000000


 C #1       0.0000000000            0.0000000000            0.0000000000
 O #2       0.0000000000            0.0000000000            0.0000000000



                     Kinetic energy integral Hessian
                     -------------------------------


           Symmetry 1

           C #1 z      O #2 z

 C #1 z    1.093721
 O #2 z   -1.093721    1.093721


           Symmetry 2

           C #1 x      O #2 x

 C #1 x   -2.007761
 O #2 x    2.007761   -2.007761


           Symmetry 3

           C #1 y      O #2 y

 C #1 y   -2.007761
 O #2 y    2.007761   -2.007761




           C #1 x      C #1 y      C #1 z      O #2 x      O #2 y      O #2 z

 C #1 x   -2.007761
 C #1 y    0.000000   -2.007761
 C #1 z    0.000000    0.000000    1.093721

 O #2 x    2.007761    0.000000    0.000000   -2.007761
 O #2 y    0.000000    2.007761    0.000000    0.000000   -2.007761
 O #2 z    0.000000    0.000000   -1.093721    0.000000    0.000000    1.093721




                   Nuclear attraction integral Hessian
                   -----------------------------------


           Symmetry 1

           C #1 z      O #2 z

 C #1 z  -13.324849
 O #2 z   13.324849  -13.324849


           Symmetry 2

           C #1 x      O #2 x

 C #1 x   21.245604
 O #2 x  -21.245604   21.245604


           Symmetry 3

           C #1 y      O #2 y

 C #1 y   21.245604
 O #2 y  -21.245604   21.245604




           C #1 x      C #1 y      C #1 z      O #2 x      O #2 y      O #2 z

 C #1 x   21.245604
 C #1 y    0.000000   21.245604
 C #1 z    0.000000    0.000000  -13.324849

 O #2 x  -21.245604    0.000000    0.000000   21.245604
 O #2 y    0.000000  -21.245604    0.000000    0.000000   21.245604
 O #2 z    0.000000    0.000000   13.324849    0.000000    0.000000  -13.324849




                Highest order reorthonormalization Hessian
                ------------------------------------------


           Symmetry 1

           C #1 z      O #2 z

 C #1 z    0.000000
 O #2 z    0.000000    0.000000


           Symmetry 2

           C #1 x      O #2 x

 C #1 x    0.000000
 O #2 x    0.000000    0.000000


           Symmetry 3

           C #1 y      O #2 y

 C #1 y    0.000000
 O #2 y    0.000000    0.000000




           C #1 x      C #1 y      C #1 z      O #2 x      O #2 y      O #2 z




                Electronic contributions to dipole moment
                -----------------------------------------

                               au             Debye

                    z     -0.90583864     -2.30241256

  Conversion factor used: 1 a.u. =   2.54174691 Debye 



   Electronic contributions to static part of dipole moment derivatives
   --------------------------------------------------------------------


                     Total dipole moment derivatives
                     -------------------------------


           Symmetry 1
                              Ez

               C #1 z    -5.71385819
               O #2 z    -8.28614181

           Symmetry 2
                              Ex

               C #1 x    -5.79898589
               O #2 x    -8.20101411

           Symmetry 3
                              Ey

               C #1 y    -5.79898589
               O #2 y    -8.20101411



                       Ex          Ey          Ez

      C #1    x   -5.798986    0.000000    0.000000
      C #1    y    0.000000   -5.798986    0.000000
      C #1    z    0.000000    0.000000   -5.713858

      O #2    x   -8.201014    0.000000    0.000000
      O #2    y    0.000000   -8.201014    0.000000
      O #2    z    0.000000    0.000000   -8.286142

 Evaluation of 1e integral derivatives required    1.77 seconds.
                    8815  records have been written to the Sort file.
  Total length of Sort file :             180513570  words.
 Evaluation of 2el integral derivatives

                      Two-electron integral gradient
                      ------------------------------

                         C #1 z   -11.1743538530
                         O #2 z    11.1743538530


 C #1       0.0000000000            0.0000000000          -11.1743538530
 O #2       0.0000000000            0.0000000000           11.1743538530


 Evaluation of 2e integral derivatives required  733.96 seconds.

                            Molecular gradient
                            ------------------

                         C #1 z     0.4484915004
                         O #2 z    -0.4484915004


 C #1       0.0000000000            0.0000000000            0.4484915004
 O #2       0.0000000000            0.0000000000           -0.4484915004


  Molecular gradient norm 0.634E+00

                            Molecular hessian
                            -----------------


           Symmetry 1

           C #1 z      O #2 z

 C #1 z   66.051632
 O #2 z  -66.051632   66.051632


           Symmetry 2

           C #1 x      O #2 x

 C #1 x    2.676347
 O #2 x   -2.676347    2.676347


           Symmetry 3

           C #1 y      O #2 y

 C #1 y    2.676347
 O #2 y   -2.676347    2.676347




           C #1 x      C #1 y      C #1 z      O #2 x      O #2 y      O #2 z

 C #1 x    2.676347
 C #1 y    0.000000    2.676347
 C #1 z    0.000000    0.000000   66.051632

 O #2 x   -2.676347    0.000000    0.000000    2.676347
 O #2 y    0.000000   -2.676347    0.000000    0.000000    2.676347
 O #2 z    0.000000    0.000000  -66.051632    0.000000    0.000000   66.051632




                           Total dipole moment
                           -------------------

                               au             Debye

                    z     -0.05333926     -0.13557489

  Conversion factor used: 1 a.u. =   2.54174691 Debye 



                     Total dipole moment derivatives
                     -------------------------------


           Symmetry 1
                              Ez

               C #1 z     0.71228701
               O #2 z    -0.71228701

           Symmetry 2
                              Ex

               C #1 x    -0.02581137
               O #2 x     0.02581137

           Symmetry 3
                              Ey

               C #1 y    -0.02581137
               O #2 y     0.02581137



                       Ex          Ey          Ez

      C #1    x   -0.025811    0.000000    0.000000
      C #1    y    0.000000   -0.025811    0.000000
      C #1    z    0.000000    0.000000    0.712287

      O #2    x    0.025811    0.000000    0.000000
      O #2    y    0.000000    0.025811    0.000000
      O #2    z    0.000000    0.000000   -0.712287

 @CHECKOUT-I, Total execution time (CPU/WALL):      735.71/     129.48 seconds.
--executable xvdint finished with status     0 in      129.67 seconds (walltime).
 --invoking executable--
/nfs/workspaces/public/cfour_mpi/bin/xjoda
  @GTFLGS-I, Hessian will be transformed to curvilinear coordinates.
  @GTFLGS-I, Hessian will be transformed to curvilinear coordinates.
  igrd and ihes are                      0                     1
  gradient from JOBARC 
   0.000000000000000   0.000000000000000   0.448491500400863
   0.000000000000000   0.000000000000000  -0.448491500400863
 
  @PROJFCM-I, Projecting force constant matrix onto totally symmetric subspace.
  Largest difference between matrix elements of symmetrized
  and unsymmetrized FCM :     0.1002575800E-10.
  read isotopes from ZMAT file 
 
  Summary of diagonal Born-Oppenheimer correction at the correlated level
  The total diagonal Born-Oppenheimer correction (DBOC) is:      0.0038713470 a.u.
  The total diagonal Born-Oppenheimer correction (DBOC) is:        849.662446 cm-1
  The total diagonal Born-Oppenheimer correction (DBOC) is:            10.164 kJ/mole
  hellooooooo 
  readis is  F
 
 @CHECKOUT-I, Total execution time (CPU/WALL):        0.12/       0.22 seconds.
--executable xjoda finished with status     0 in        0.33 seconds (walltime).
  The final electronic energy is      -113.281905503080367 a.u. 
  This computation required                         3966.27 seconds (walltime).
