 --invoking executable--
/nfs/workspaces/public/cfour_mpi/bin/xjoda


   *************************************************************************
         <<<     CCCCCC     CCCCCC   |||     CCCCCC     CCCCCC   >>>
       <<<      CCC        CCC       |||    CCC        CCC         >>>
      <<<      CCC        CCC        |||   CCC        CCC            >>>
    <<<        CCC        CCC        |||   CCC        CCC              >>>
      <<<      CCC        CCC        |||   CCC        CCC            >>>
       <<<      CCC        CCC       |||    CCC        CCC         >>>
         <<<     CCCCCC     CCCCCC   |||     CCCCCC     CCCCCC   >>>
   *************************************************************************

     ****************************************************************
     * CFOUR Coupled-Cluster techniques for Computational Chemistry *
     ****************************************************************
 

   Department of Chemistry                Institut fuer Physikalische Chemie
   University of Florida                  Universitaet Mainz
   Gainesville, FL 32611, USA             D-55099 Mainz, Germany

   Department of Chemistry                Fakultaet fuer Chemie und Biowiss.
   Johns Hopkins University               Karlsruher Institut fuer Technologie
   Baltimore, MD 21218, USA               D-76131 Karlsruhe, Germany

   Department of Chemistry                Department of Physical Chemistry
   Southern Methodist University          Eotvos Lorand University
   Dallas, TX 75275, USA                  H-1053 Budapest, Hungary

 
                       Version 2.1
 
                     vincent.theory.phys.ucl.ac.uk                     
                     Mon  3 Mar 16:32:35 GMT 2025                      
                     integer*8 version is running
 
********************************************************************************
*                          Input from ZMAT file                                *
********************************************************************************
Carbon Monoxide DBOC calculation                                                
C                                                                               
O 1 r                                                                           
                                                                                
r=1.6758620689655173                                                            
                                                                                
                                                                                
*CFOUR(CALC=CCSD,BASIS=AUG-PCVQZ,SCF_CONV=10                                    
CC_CONV=14,DBOC=ON,MEMORY=500000000                                             
ZFIELD=-200)                                                                    
                                                                                
%isotopes                                                                       
12                                                                              
18                                                                              
********************************************************************************
  @GTFLGS-I, Hessian will be transformed to curvilinear coordinates.
    -------------------------------------------------------------------
                    CFOUR Control Parameters 
    -------------------------------------------------------------------
        External           Internal           Value            Units
          Name               Name
    -------------------------------------------------------------------
       ABCDTYPE             IABCDT         STANDARD    [  0]    ***   
       ANHARMONIC           IANHAR         OFF         [  0]    ***   
       ANH_ALGORIT          IANALG         STANDARD    [  0]    ***   
       ANH_DERIVAT          IANDER         SECOND      [  1]    ***   
       ANH_MODE             ANHMOD         VIBRATION   [  0]    ***   
       ANH_STEPSIZ          ICUBST             50000          x 10-6  
       ANH_SYMMETR          IANHSM         ABELIAN     [  0]    ***   
       AO_LADDERS           IAOLAD         SINGLEPASS  [  1]    ***   
       AV_SCF               IAVSCF         OFF         [  0]    ***   
       BASIS                IBASIS         AUG-PCVQZ   [ 52]    ***   
       BOTHVECTORS          BOTHVC         OFF         [  0]    ***   
       BOX_POTENT           IPIAB          OFF         [  0]    ***   
       BREIT                IBREIT         OFF         [  0]    ***   
       BRUCK_CONV           IBRTOL          10D-  4             ***   
       BRUECKNER            IBRKNR         OFF         [  0]    ***   
       BUFFERSIZE           IBUFFS              4096            ***   
       CACHE_RECS           ICHREC             10               ***   
       CALCLEVEL            ICLLVL         CCSD        [ 10]    ***   
       CCORBOPT             ICCORB         OFF         [  0]  x 0.01  
       CC_CONV              ICCCNV          10D- 14             ***   
       CC_EXPORDER          ICCEOR              5               ***   
       CC_EXTRAPOL          ICCEXT         DIIS        [  1]    ***   
       CC_GUESS             ICCGES         MP2         [  0]    ***   
       CC_MAXCYC            ICCCYC            100              cycles 
       CC_PROGRAM           ICCPRO         VCC         [  0]    ***   
       CHARGE               ICHRGE              0               ***   
       CHOLESKY             ICHOLE         OFF         [  0]    ***   
       CIS_CONV             ICISTL              5               ***   
       COMM_SIZE            IPSIZE            ***               ***   
       CONSTANT             ICONST         OLD         [  1]    ***   
       CONTINUUM            ICONTU         NONE        [  0]    ***   
       CONTRACTION          ICNTYP         GENERAL     [  1]    ***   
       COORDINATES          ICOORD         INTERNAL    [  0]    ***   
       CPHF_CONVER          ICPHFT          10D- 16             ***   
       CPHF_MAXCYC          ICPHFC             64              cycles 
       CUBIC                ICUBIC         OFF         [  0]    ***   
       CURVILINEAR          ICURVY         ON          [  1]    ***   
       DBOC                 IDBOC          ON          [  1]    ***   
       DCT                  IDCT           OFF         [  0]    ***   
       DERIV_LEV            IDRLVL         SECOND      [  2]    ***   
       DEVMEM_SIZE          IDVMEM          50000000           MByte  
       DIAG_MRCC            IEOMST          10D-  0             ***   
       DIFF_TYPE            IDIFTY         RELAXED     [  0]    ***   
       DIRECT               IDIRCT         OFF         [  0]    ***   
       DROPMO               IDRPMO      NONE         
       ECP                  IECP           OFF         [  0]    ***   
       EIGENVECTOR          IVEC                1               ***   
       EL_ANHARM            IELANH         OFF         [  0]    ***   
       EOMFOLLOW            IEOMSR         ENERGY      [  0]    ***   
       EOMIP                IEOMIP         OFF         [  0]    ***   
       EOMLEVEL             HBARFM         SAME        [  0]    ***   
       EOM_MRCC             IMRCCE         NEW         [  1]    ***   
       EOM_NONIT            EOMNON         OFF         [  0]    ***   
       EOM_NSING            IEOMSI          10D-  0             ***   
       EOM_NSTATES          IMRCCD         DAVIDSON    [  0]    ***   
       EOM_NTRIP            IEOMTR          10D-  0             ***   
       EOM_ORDER            IEXORD         ENERGY      [  0]    ***   
       EOM_PROPSTA          IEOMST              0               ***   
       ESTATE_CONV          IEXTOL          10D-  5             ***   
       ESTATE_DIAG          IEXDIG         ITERATIVE   [  0]    ***   
       ESTATE_LOCK          IESLOC         ON          [  1]    ***   
       ESTATE_MAXC          IEXMXC             40               ***   
       ESTATE_PROP          IEXPRP         OFF         [  0]    ***   
       EVAL_HESS            IRECAL              0            # of cyc.
       EXCITATION           IEXCIT              0               ***   
       EXCITE               IEXCIT         NONE        [  0]    ***   
       EXTERN_POT           IEXPOT         OFF         [  0]    ***   
       FCGRADNEW            IFCGNW         OFF         [  0]    ***   
       FC_FIELD             IFINFC              0             x 10-6  
       FD_CALTYPE           IFDCAL         GRADONLY    [  0]    ***   
       FD_PROJECT           IFDPRJ         OFF         [  1]    ***   
       FD_STEPSIZE          IDISFD              0            10-4 bohr
       FD_USEGROUP          IFDGRP         FULL        [  0]    ***   
       FILE_RECSIZ          IFLREC              4096           words  
       FINITE_PERT          IFIPER              0             x 10-6  
       FIXGEOM              IFIXGM         OFF         [  0]    ***   
       FOCK                 IFOCK          AO          [  1]    ***   
       FREQ_ALGORI          IVIALG         STANDARD    [  0]    ***   
       FROZEN_CORE          IFROCO         OFF         [  0]    ***   
       GAMMA_ABCD           IGABCD         STORE       [  0]    ***   
       GAMMA_ABCI           IGABCI         STORE       [  0]    ***   
       GENBAS_1             IGNBS1              0               ***   
       GENBAS_2             IGNBS2              0               ***   
       GENBAS_3             IGNBS3              0               ***   
       GENBAS_4             IGNBS4              0               ***   
       GEO_CONV             ICONTL              5              H/bohr 
       GEO_MAXCYC           IOPTCY             50               ***   
       GEO_MAXSTEP          IMXSTP            300            millibohr
       GEO_METHOD           INR            SINGLE_POINT[  5]    ***   
       GIAO                 IGIAO          OFF         [  1]    ***   
       GIMIC                IGIMIC         OFF         [  0]    ***   
       GRID                 IGRID          OFF         [  0]    ***   
       GRID_ALGO            IGALGO         SERIAL      [  0]    ***   
       GUESS                IGUESS         MOREAD      [  0]    ***   
       HBAR                 IHBAR          OFF         [  0]    ***   
       HESS_TYPE            IHESTP         SCF         [  0]    ***   
       HF2_FILE             IHF2Fl         USE         [  1]    ***   
       HFSTABILITY          ISTABL         OFF         [  0]    ***   
       INCORE               INCORE         OFF         [  0]    ***   
       INPUT_MRCC           IMRCC          ON          [  1]    ***   
       INTEGRALS            INTTYP         VMOL        [  1]    ***   
       JODA_PRINT           IJPRNT              0               ***   
       KEYWORD_OUT          IDMPKW         NO          [  0]    ***   
       LINDEP_TOL           ILINDP              8               ***   
       LINEQ_CONV           IZTACN          10D-  7           cycles  
       LINEQ_EXPOR          ILMAXD              5               ***   
       LINEQ_MAXCY          ILMAXC            100               ***   
       LINEQ_TYPE           ILTYPE         DIIS        [  1]    ***   
       LOCK_ORBOCC          ILOCOC         OFF         [  0]    ***   
       MEMORY_SIZE          IMEMSZ         500000000           words  
       MEM_UNIT             IMEMU          INTEGERWORDS[  0]    ***   
       MRCC                 IMRCCC         OFF         [  0]    ***   
       MULTIPLICTY          IMULTP              1               ***   
       NACOUPLING           IVCOUP         OFF         [  0]    ***   
       NEGEVAL              IDIE           ABORT       [  0]    ***   
       NEWNORM              INEWNO         OFF         [  0]    ***   
       NON-HF               INONHF         OFF         [  0]    ***   
       NTOP_TAMP            ITOPT2             15               ***   
       NUC_MODEL            INUCMO         POINT       [  0]    ***   
       OCCUPATION           IOCCU   ESTIMATED BY SCF 
       OPEN-SHELL           IOPEN          SPIN-ORBITAL[  0]    ***   
       OPTVIB               IOPTVB         OFF         [  0]    ***   
       ORBITALS             IORBTP         STANDARD    [  0]    ***   
       PARALLEL             IPARAL         ON          [  1]    ***   
       PARA_INT             IPINTS         ON          [  1]    ***   
       PARA_PRINT           IPPRIN              0               ***   
       PERT_ORB             IPTORB         STANDARD    [  0]    ***   
       POINTS               IGRDFD              0               ***   
       PRINT                IPRNT               0               ***   
       PROPS                IPROPS         OFF         [  0]    ***   
       PROP_INTEGR          IINTYP         INTERNAL    [  0]    ***   
       PSI                  IPSI           OFF         [  0]    ***   
       QC_ALG               IQCALG         FLM         [  0]    ***   
       QC_LINALG            IQCLIN         TRIDIAG     [  2]    ***   
       QC_MAXCYC            IQCMAX          10D-100           cycles  
       QC_MAXSCFCY          IQCMSC          10D- 15           cycles  
       QC_RTRUST            IQCRTR          10D-  0           x 10-3  
       QC_SKIPSCF           IQCSKI         OFF         [  0]    ***   
       QC_START             IQCSTA          10D-  1             ***   
       QRHFGUESS            IQGUES         OFF         [  0]    ***   
       QUARTIC              IQUART         OFF         [  0]    ***   
       RAMAN_INT            IRAMIN         OFF         [  0]    ***   
       RAMAN_ORB            IRAMRE         UNRELAXED   [  0]    ***   
       RDO                  IRDOFM         ON          [  1]    ***   
       REDUCE_REPR          REDREP         Ir          [  0]    ***   
       REFERENCE            IREFNC         RHF         [  0]    ***   
       RELATIVIST           IRELAT         OFF         [  0]    ***   
       RELAX_DENS           IRDENS         ON          [  1]    ***   
       RESET_FLAGS          IRESET         OFF         [  0]    ***   
       RESTART_CC           ICCRES         OFF         [  0]    ***   
       ROT_EVEC             ROTVEC              0               ***   
       SAVE_INTS            ISVINT         OFF         [  0]    ***   
       SCALE_ON             ISTCRT              0               ***   
       SCF_CONV             ISCFCV          10D- 10             ***   
       SCF_DAMPING          IDAMP               0             x 10-3  
       SCF_EXPORDE          IRPPOR              6               ***   
       SCF_EXPSTAR          IRPPLS              8               ***   
       SCF_EXTRAPO          IRPP           ON          [  1]    ***   
       SCF_MAXCYC           ISCFCY            150              cycles 
       SCF_NOSTOP           ISCFST         OFF         [  0]    ***   
       SCF_PRINT            ISCFPR              0               ***   
       SCF_PROG             ISCFPR         SCF         [  0]    ***   
       SD_FIELD             IFINSD              0             x 10-6  
       SOPERT               IPERSO         OFF         [  0]    ***   
       SPHERICAL            IDFGHI         ON          [  1]    ***   
       SPINORBIT            ISOCAL         OFF         [  0]    ***   
       SPINROTATIO          ISRCON         OFF         [  0]    ***   
       SPIN_FLIP            ISPFLP         OFF         [  0]    ***   
       SPIN_ORBIT           ISPORB         OFF         [  0]    ***   
       SPIN_SCAL            ISCSMP         OFF         [  0]    ***   
       STEEPSCALE           ISTPSC              1000          x 10-3  
       SUBGROUP             ISUBGP         DEFAULT     [  0]    ***   
       SUBGRPAXIS           ISBXYZ         X           [  0]    ***   
       SYMMETRY             ISYM           ON          [  0]    ***   
       SYM_CHECK            ISYMCK         OVERRIDE    [  1]    ***   
       T3_EXTRAPOL          IT3EXT         OFF         [  0]    ***   
       T4_EXTRAPOL          IT4EXP         OFF         [  0]    ***   
       TAMP_SUM             IEVERY              5               ***   
       TESTSUITE            ITESTS         OFF         [  0]    ***   
       THERMOCH             ITHERM         OFF         [  0]    ***   
       TOL_CHOLESK          ITOLCH          10D-  4             ***   
       TRANGRAD             IRESRM         OFF         [  0]    ***   
       TRANS_INV            ITRAIN         IGNORE      [  1]    ***   
       TREAT_PERT           ITREAT         SIMULTANEOUS[  0]    ***   
       TRIP_ALGORI          ITRALG         NORMAL      [  0]    ***   
       UIJ_THRESHO          IUIJTH              1               ***   
       UNITS                IUNITS         ANGSTROM    [  0]    ***   
       UNOS                 IUNOS          OFF         [  0]    ***   
       UPDATE_HESS          IHUPDT         ON          [  1]    ***   
       VIBPHASE             ISETPH         STANDARD    [  0]    ***   
       VIBRATION            IVIB           ANALYTIC    [  1]    ***   
       VIB_ALGORIT          IGEALG         STANDARD    [  0]    ***   
       VNATORB              IVNORB         OFF         [  0]    ***   
       VTRAN                IVTRAN         FULL/PARTIAL[  0]    ***   
       XFIELD               IXEFLD              0             x 10-6  
       XFORM_TOL            IXFTOL          10D- 11             ***   
       YFIELD               IYEFLD              0             x 10-6  
       ZFIELD               IZEFLD            ***             x 10-6  
       ZSCALE_EXP           IZEXPS         OFF         [  0]    ***   
    -------------------------------------------------------------------
   2 entries found in Z-matrix 
   Job Title : Carbon Monoxide DBOC calculation                                                
   There are  1 unique internal coordinates.
   Of these,  0 will be optimized.
   User supplied Z-matrix: 
--------------------------------------------------------------------------------
       SYMBOL    BOND      LENGTH    ANGLE     ANGLE     DIHED     ANGLE
                  TO      (ANGST)    WRT      (DEG)      WRT      (DEG)
--------------------------------------------------------------------------------
        C    
        O          1         r    
                  *Initial values for internal coordinates* 
                      Name             Value
                        r               1.6758620690
--------------------------------------------------------------------------------
  read isotopes from ZMAT file 
   Rotational constants (in cm-1): 
          0.8336727772             0.8336727772
   Rotational constants (in MHz): 
      24992.8846054315         24992.8846054315
********************************************************************************
   The full molecular point group is CXv .
   The largest Abelian subgroup of the full molecular point group is C2v .
   The computational point group is C2v .
********************************************************************************
--------------------------------------------------------------------------------
   Analysis of internal coordinates specified by Z-matrix 
--------------------------------------------------------------------------------
   *The nuclear repulsion energy is   15.156677432098764 a.u.
   *There is   1 degree of freedom within the tot. symm. molecular subspace.
   *Z-matrix requests optimization of   0 coordinates.
   *The optimization is constrained.
   *The following   1 parameters can have non-zero 
    derivatives within the totally symmetric subspace:
             r    [ 1]
   *The following   0 parameters are to be optimized:

   *The following coordinates must be varied in an  unconstrained optimization.
             r    [ 1]
--------------------------------------------------------------------------------


 ----------------------------------------------------------------
         Coordinates used in calculation (QCOMP) 
 ----------------------------------------------------------------
 Z-matrix   Atomic            Coordinates (in bohr)
  Symbol    Number           X              Y              Z
 ----------------------------------------------------------------
     C         6        -0.00000000     0.00000000     1.90011714
     O         8         0.00000000     0.00000000    -1.26680386
 ----------------------------------------------------------------
 
   Interatomic distance matrix (Angstroms) 
 
                 C             O    
                [ 1]        [ 2]
  C    [ 1]     0.00000
  O    [ 2]     1.67586     0.00000
 rotcon2
   Rotational constants (in cm-1): 
          0.8336727772             0.0000000000
   Rotational constants (in MHz): 
      24992.8846054315             0.0000000000
  ECPDATA file not present.   Using default ECPDATA. 
  @GTFLGS-I, Hessian will be transformed to curvilinear coordinates.
  There are  218 basis functions.
 @CHECKOUT-I, Total execution time (CPU/WALL):        0.23/       0.33 seconds.
--executable xjoda finished with status     0 in        0.37 seconds (walltime).
 --invoking executable--
/nfs/workspaces/public/cfour_mpi/bin/xvmol
 SERIAL VERSION OF MOLECULE STARTED
********************************************************************************
                    INPUT FROM MOL FILE
********************************************************************************
INTGRL        1    0    1    0    0    0    0    0    0                         
         *** CFOUR Program System (Release V0.1) ***                            
Carbon Monoxide DBOC calculation                                                
    2    2 X  Y       0.10E-08              0    0                              
   9999.00      3.00                                                            
          6.00000000    1    5    1    1    1    1    1                         
C #1  -0.000000000000000   0.000000000000000   1.900117140183119                
   16    9                                                                      
   33980.0000000000       9.100000000000000E-005 -1.900000000000000E-005        
  0.000000000000000E+000  0.000000000000000E+000  0.000000000000000E+000        
  0.000000000000000E+000  0.000000000000000E+000  0.000000000000000E+000        
  0.000000000000000E+000                                                        
   5089.00000000000       7.040000000000000E-004 -1.510000000000000E-004        
  0.000000000000000E+000  0.000000000000000E+000  0.000000000000000E+000        
  0.000000000000000E+000  0.000000000000000E+000  0.000000000000000E+000        
  0.000000000000000E+000                                                        
   1157.00000000000       3.693000000000000E-003 -7.850000000000000E-004        
  0.000000000000000E+000  0.000000000000000E+000  0.000000000000000E+000        
  0.000000000000000E+000  0.000000000000000E+000  0.000000000000000E+000        
  0.000000000000000E+000                                                        
   326.600000000000       1.536000000000000E-002 -3.324000000000000E-003        
  0.000000000000000E+000  0.000000000000000E+000  0.000000000000000E+000        
  0.000000000000000E+000  0.000000000000000E+000  0.000000000000000E+000        
  0.000000000000000E+000                                                        
   106.100000000000       5.292900000000000E-002 -1.151200000000000E-002        
  0.000000000000000E+000  0.000000000000000E+000  0.000000000000000E+000        
  0.000000000000000E+000  0.000000000000000E+000  0.000000000000000E+000        
  0.000000000000000E+000                                                        
   38.1100000000000       0.147043000000000      -3.416000000000000E-002        
  0.000000000000000E+000  0.000000000000000E+000  0.000000000000000E+000        
  0.000000000000000E+000  0.000000000000000E+000  0.000000000000000E+000        
  0.000000000000000E+000                                                        
   14.7500000000000       0.305631000000000      -7.717300000000001E-002        
  0.000000000000000E+000  0.000000000000000E+000  0.000000000000000E+000        
  0.000000000000000E+000  0.000000000000000E+000  0.000000000000000E+000        
  0.000000000000000E+000                                                        
   6.03500000000000       0.399345000000000      -0.141493000000000             
  0.000000000000000E+000  0.000000000000000E+000  0.000000000000000E+000        
  0.000000000000000E+000  0.000000000000000E+000  0.000000000000000E+000        
  0.000000000000000E+000                                                        
   2.53000000000000       0.217051000000000      -0.118019000000000             
  0.000000000000000E+000  0.000000000000000E+000  0.000000000000000E+000        
  0.000000000000000E+000  0.000000000000000E+000  0.000000000000000E+000        
  0.000000000000000E+000                                                        
  0.735500000000000       1.589400000000000E-002  0.273806000000000             
   1.00000000000000       0.000000000000000E+000  0.000000000000000E+000        
  0.000000000000000E+000  0.000000000000000E+000  0.000000000000000E+000        
  0.000000000000000E+000                                                        
  0.290500000000000      -3.084000000000000E-003  0.586510000000000             
  0.000000000000000E+000   1.00000000000000       0.000000000000000E+000        
  0.000000000000000E+000  0.000000000000000E+000  0.000000000000000E+000        
  0.000000000000000E+000                                                        
  0.111100000000000       9.779999999999999E-004  0.285430000000000             
  0.000000000000000E+000  0.000000000000000E+000   1.00000000000000             
  0.000000000000000E+000  0.000000000000000E+000  0.000000000000000E+000        
  0.000000000000000E+000                                                        
   7.21600000000000       0.000000000000000E+000  0.000000000000000E+000        
  0.000000000000000E+000  0.000000000000000E+000  0.000000000000000E+000        
   1.00000000000000       0.000000000000000E+000  0.000000000000000E+000        
  0.000000000000000E+000                                                        
   19.5700000000000       0.000000000000000E+000  0.000000000000000E+000        
  0.000000000000000E+000  0.000000000000000E+000  0.000000000000000E+000        
  0.000000000000000E+000   1.00000000000000       0.000000000000000E+000        
  0.000000000000000E+000                                                        
   53.0730000000000       0.000000000000000E+000  0.000000000000000E+000        
  0.000000000000000E+000  0.000000000000000E+000  0.000000000000000E+000        
  0.000000000000000E+000  0.000000000000000E+000   1.00000000000000             
  0.000000000000000E+000                                                        
  4.145000000000000E-002  0.000000000000000E+000  0.000000000000000E+000        
  0.000000000000000E+000  0.000000000000000E+000  0.000000000000000E+000        
  0.000000000000000E+000  0.000000000000000E+000  0.000000000000000E+000        
   1.00000000000000                                                             
   10    8                                                                      
   34.5100000000000       5.378000000000000E-003  0.000000000000000E+000        
  0.000000000000000E+000  0.000000000000000E+000  0.000000000000000E+000        
  0.000000000000000E+000  0.000000000000000E+000  0.000000000000000E+000        
   7.91500000000000       3.613200000000000E-002  0.000000000000000E+000        
  0.000000000000000E+000  0.000000000000000E+000  0.000000000000000E+000        
  0.000000000000000E+000  0.000000000000000E+000  0.000000000000000E+000        
   2.36800000000000       0.142493000000000       0.000000000000000E+000        
  0.000000000000000E+000  0.000000000000000E+000  0.000000000000000E+000        
  0.000000000000000E+000  0.000000000000000E+000  0.000000000000000E+000        
  0.813200000000000       0.342150000000000        1.00000000000000             
  0.000000000000000E+000  0.000000000000000E+000  0.000000000000000E+000        
  0.000000000000000E+000  0.000000000000000E+000  0.000000000000000E+000        
  0.289000000000000       0.463864000000000       0.000000000000000E+000        
   1.00000000000000       0.000000000000000E+000  0.000000000000000E+000        
  0.000000000000000E+000  0.000000000000000E+000  0.000000000000000E+000        
  0.100700000000000       0.250028000000000       0.000000000000000E+000        
  0.000000000000000E+000   1.00000000000000       0.000000000000000E+000        
  0.000000000000000E+000  0.000000000000000E+000  0.000000000000000E+000        
   8.18200000000000       0.000000000000000E+000  0.000000000000000E+000        
  0.000000000000000E+000  0.000000000000000E+000   1.00000000000000             
  0.000000000000000E+000  0.000000000000000E+000  0.000000000000000E+000        
   24.1860000000000       0.000000000000000E+000  0.000000000000000E+000        
  0.000000000000000E+000  0.000000000000000E+000  0.000000000000000E+000        
   1.00000000000000       0.000000000000000E+000  0.000000000000000E+000        
   71.4940000000000       0.000000000000000E+000  0.000000000000000E+000        
  0.000000000000000E+000  0.000000000000000E+000  0.000000000000000E+000        
  0.000000000000000E+000   1.00000000000000       0.000000000000000E+000        
  3.218000000000000E-002  0.000000000000000E+000  0.000000000000000E+000        
  0.000000000000000E+000  0.000000000000000E+000  0.000000000000000E+000        
  0.000000000000000E+000  0.000000000000000E+000   1.00000000000000             
    6    6                                                                      
   1.84800000000000        1.00000000000000       0.000000000000000E+000        
  0.000000000000000E+000  0.000000000000000E+000  0.000000000000000E+000        
  0.000000000000000E+000                                                        
  0.649000000000000       0.000000000000000E+000   1.00000000000000             
  0.000000000000000E+000  0.000000000000000E+000  0.000000000000000E+000        
  0.000000000000000E+000                                                        
  0.228000000000000       0.000000000000000E+000  0.000000000000000E+000        
   1.00000000000000       0.000000000000000E+000  0.000000000000000E+000        
  0.000000000000000E+000                                                        
   8.65600000000000       0.000000000000000E+000  0.000000000000000E+000        
  0.000000000000000E+000   1.00000000000000       0.000000000000000E+000        
  0.000000000000000E+000                                                        
   33.2130000000000       0.000000000000000E+000  0.000000000000000E+000        
  0.000000000000000E+000  0.000000000000000E+000   1.00000000000000             
  0.000000000000000E+000                                                        
  7.660000000000000E-002  0.000000000000000E+000  0.000000000000000E+000        
  0.000000000000000E+000  0.000000000000000E+000  0.000000000000000E+000        
   1.00000000000000                                                             
    4    4                                                                      
   1.41900000000000        1.00000000000000       0.000000000000000E+000        
  0.000000000000000E+000  0.000000000000000E+000                                
  0.485000000000000       0.000000000000000E+000   1.00000000000000             
  0.000000000000000E+000  0.000000000000000E+000                                
   24.6940000000000       0.000000000000000E+000  0.000000000000000E+000        
   1.00000000000000       0.000000000000000E+000                                
  0.187000000000000       0.000000000000000E+000  0.000000000000000E+000        
  0.000000000000000E+000   1.00000000000000                                     
    2    2                                                                      
   1.01100000000000        1.00000000000000       0.000000000000000E+000        
  0.424000000000000       0.000000000000000E+000   1.00000000000000             
          8.00000000    1    5    1    1    1    1    1                         
O #2   0.000000000000000   0.000000000000000  -1.266803856521986                
   16    9                                                                      
   61420.0000000000       9.000000000000001E-005 -2.000000000000000E-005        
  0.000000000000000E+000  0.000000000000000E+000  0.000000000000000E+000        
  0.000000000000000E+000  0.000000000000000E+000  0.000000000000000E+000        
  0.000000000000000E+000                                                        
   9199.00000000000       6.980000000000001E-004 -1.590000000000000E-004        
  0.000000000000000E+000  0.000000000000000E+000  0.000000000000000E+000        
  0.000000000000000E+000  0.000000000000000E+000  0.000000000000000E+000        
  0.000000000000000E+000                                                        
   2091.00000000000       3.664000000000000E-003 -8.290000000000000E-004        
  0.000000000000000E+000  0.000000000000000E+000  0.000000000000000E+000        
  0.000000000000000E+000  0.000000000000000E+000  0.000000000000000E+000        
  0.000000000000000E+000                                                        
   590.900000000000       1.521800000000000E-002 -3.508000000000000E-003        
  0.000000000000000E+000  0.000000000000000E+000  0.000000000000000E+000        
  0.000000000000000E+000  0.000000000000000E+000  0.000000000000000E+000        
  0.000000000000000E+000                                                        
   192.300000000000       5.242300000000000E-002 -1.215600000000000E-002        
  0.000000000000000E+000  0.000000000000000E+000  0.000000000000000E+000        
  0.000000000000000E+000  0.000000000000000E+000  0.000000000000000E+000        
  0.000000000000000E+000                                                        
   69.3200000000000       0.145921000000000      -3.626100000000000E-002        
  0.000000000000000E+000  0.000000000000000E+000  0.000000000000000E+000        
  0.000000000000000E+000  0.000000000000000E+000  0.000000000000000E+000        
  0.000000000000000E+000                                                        
   26.9700000000000       0.305258000000000      -8.299200000000000E-002        
  0.000000000000000E+000  0.000000000000000E+000  0.000000000000000E+000        
  0.000000000000000E+000  0.000000000000000E+000  0.000000000000000E+000        
  0.000000000000000E+000                                                        
   11.1000000000000       0.398508000000000      -0.152090000000000             
  0.000000000000000E+000  0.000000000000000E+000  0.000000000000000E+000        
  0.000000000000000E+000  0.000000000000000E+000  0.000000000000000E+000        
  0.000000000000000E+000                                                        
   4.68200000000000       0.216980000000000      -0.115331000000000             
  0.000000000000000E+000  0.000000000000000E+000  0.000000000000000E+000        
  0.000000000000000E+000  0.000000000000000E+000  0.000000000000000E+000        
  0.000000000000000E+000                                                        
   1.42800000000000       1.759400000000000E-002  0.288979000000000             
   1.00000000000000       0.000000000000000E+000  0.000000000000000E+000        
  0.000000000000000E+000  0.000000000000000E+000  0.000000000000000E+000        
  0.000000000000000E+000                                                        
  0.554700000000000      -2.502000000000000E-003  0.586128000000000             
  0.000000000000000E+000   1.00000000000000       0.000000000000000E+000        
  0.000000000000000E+000  0.000000000000000E+000  0.000000000000000E+000        
  0.000000000000000E+000                                                        
  0.206700000000000       9.540000000000000E-004  0.277624000000000             
  0.000000000000000E+000  0.000000000000000E+000   1.00000000000000             
  0.000000000000000E+000  0.000000000000000E+000  0.000000000000000E+000        
  0.000000000000000E+000                                                        
   12.9740000000000       0.000000000000000E+000  0.000000000000000E+000        
  0.000000000000000E+000  0.000000000000000E+000  0.000000000000000E+000        
   1.00000000000000       0.000000000000000E+000  0.000000000000000E+000        
  0.000000000000000E+000                                                        
   34.9000000000000       0.000000000000000E+000  0.000000000000000E+000        
  0.000000000000000E+000  0.000000000000000E+000  0.000000000000000E+000        
  0.000000000000000E+000   1.00000000000000       0.000000000000000E+000        
  0.000000000000000E+000                                                        
   93.8810000000000       0.000000000000000E+000  0.000000000000000E+000        
  0.000000000000000E+000  0.000000000000000E+000  0.000000000000000E+000        
  0.000000000000000E+000  0.000000000000000E+000   1.00000000000000             
  0.000000000000000E+000                                                        
  6.959000000000000E-002  0.000000000000000E+000  0.000000000000000E+000        
  0.000000000000000E+000  0.000000000000000E+000  0.000000000000000E+000        
  0.000000000000000E+000  0.000000000000000E+000  0.000000000000000E+000        
   1.00000000000000                                                             
   10    8                                                                      
   63.4200000000000       6.044000000000000E-003  0.000000000000000E+000        
  0.000000000000000E+000  0.000000000000000E+000  0.000000000000000E+000        
  0.000000000000000E+000  0.000000000000000E+000  0.000000000000000E+000        
   14.6600000000000       4.179900000000000E-002  0.000000000000000E+000        
  0.000000000000000E+000  0.000000000000000E+000  0.000000000000000E+000        
  0.000000000000000E+000  0.000000000000000E+000  0.000000000000000E+000        
   4.45900000000000       0.161143000000000       0.000000000000000E+000        
  0.000000000000000E+000  0.000000000000000E+000  0.000000000000000E+000        
  0.000000000000000E+000  0.000000000000000E+000  0.000000000000000E+000        
   1.53100000000000       0.356731000000000        1.00000000000000             
  0.000000000000000E+000  0.000000000000000E+000  0.000000000000000E+000        
  0.000000000000000E+000  0.000000000000000E+000  0.000000000000000E+000        
  0.530200000000000       0.448309000000000       0.000000000000000E+000        
   1.00000000000000       0.000000000000000E+000  0.000000000000000E+000        
  0.000000000000000E+000  0.000000000000000E+000  0.000000000000000E+000        
  0.175000000000000       0.244940000000000       0.000000000000000E+000        
  0.000000000000000E+000   1.00000000000000       0.000000000000000E+000        
  0.000000000000000E+000  0.000000000000000E+000  0.000000000000000E+000        
   14.4750000000000       0.000000000000000E+000  0.000000000000000E+000        
  0.000000000000000E+000  0.000000000000000E+000   1.00000000000000             
  0.000000000000000E+000  0.000000000000000E+000  0.000000000000000E+000        
   42.7300000000000       0.000000000000000E+000  0.000000000000000E+000        
  0.000000000000000E+000  0.000000000000000E+000  0.000000000000000E+000        
   1.00000000000000       0.000000000000000E+000  0.000000000000000E+000        
   126.140000000000       0.000000000000000E+000  0.000000000000000E+000        
  0.000000000000000E+000  0.000000000000000E+000  0.000000000000000E+000        
  0.000000000000000E+000   1.00000000000000       0.000000000000000E+000        
  5.348000000000000E-002  0.000000000000000E+000  0.000000000000000E+000        
  0.000000000000000E+000  0.000000000000000E+000  0.000000000000000E+000        
  0.000000000000000E+000  0.000000000000000E+000   1.00000000000000             
    6    6                                                                      
   3.77500000000000        1.00000000000000       0.000000000000000E+000        
  0.000000000000000E+000  0.000000000000000E+000  0.000000000000000E+000        
  0.000000000000000E+000                                                        
   1.30000000000000       0.000000000000000E+000   1.00000000000000             
  0.000000000000000E+000  0.000000000000000E+000  0.000000000000000E+000        
  0.000000000000000E+000                                                        
  0.444000000000000       0.000000000000000E+000  0.000000000000000E+000        
   1.00000000000000       0.000000000000000E+000  0.000000000000000E+000        
  0.000000000000000E+000                                                        
   14.9270000000000       0.000000000000000E+000  0.000000000000000E+000        
  0.000000000000000E+000   1.00000000000000       0.000000000000000E+000        
  0.000000000000000E+000                                                        
   57.5440000000000       0.000000000000000E+000  0.000000000000000E+000        
  0.000000000000000E+000  0.000000000000000E+000   1.00000000000000             
  0.000000000000000E+000                                                        
  0.154000000000000       0.000000000000000E+000  0.000000000000000E+000        
  0.000000000000000E+000  0.000000000000000E+000  0.000000000000000E+000        
   1.00000000000000                                                             
    4    4                                                                      
   2.66600000000000        1.00000000000000       0.000000000000000E+000        
  0.000000000000000E+000  0.000000000000000E+000                                
  0.859000000000000       0.000000000000000E+000   1.00000000000000             
  0.000000000000000E+000  0.000000000000000E+000                                
   26.4830000000000       0.000000000000000E+000  0.000000000000000E+000        
   1.00000000000000       0.000000000000000E+000                                
  0.324000000000000       0.000000000000000E+000  0.000000000000000E+000        
  0.000000000000000E+000   1.00000000000000                                     
    2    2                                                                      
   1.84600000000000        1.00000000000000       0.000000000000000E+000        
  0.714000000000000       0.000000000000000E+000   1.00000000000000             
FINISH                                                                          
 
********************************************************************************
 ONE- AND TWO-ELECTRON INTEGRALS OVER SYMMETRY-ADAPTED AOS ARE CALCULATED.

  SPHERICAL HARMONICS ARE USED.
  
  INTEGRALS LESS THAN  0.10E-13 ARE NEGLECTED.

  NUCLEAR REPULSION ENERGY :   15.1566774321 A.U.
  @MOLECU-I, ONE ELECTRON INTEGRALS (CPU/WALL):        0.06/       0.07 SECONDS.
  @TWOEL-I,    4401505 INTEGRALS OF SYMMETRY TYPE  I I I I
  @TWOEL-I,   18996055 INTEGRALS OF SYMMETRY TYPE  I J I J
  @TWOEL-I,   10002073 INTEGRALS OF SYMMETRY TYPE  I I J J
  @TWOEL-I,   14031888 INTEGRALS OF SYMMETRY TYPE  I J K L
  @TWOEL-I, TOTAL NUMBER OF 2-E INTEGRALS   47431521.
  @MOLECU-I, TWO ELECTRON INTEGRALS (CPU/WALL):      206.65/      28.45 SECONDS.
 @CHECKOUT-I, Total execution time (CPU/WALL):      206.74/      28.54 seconds.

Running with 14 threads/proc

--executable xvmol finished with status     0 in       28.60 seconds (walltime).
 --invoking executable--
/nfs/workspaces/public/cfour_mpi/bin/xvmol2ja
 @GETMEM-I,  Allocated    3814 MB of main memory.
 @CHECKOUT-I, Total execution time (CPU/WALL):        0.17/       0.04 seconds.
--executable xvmol2ja finished with status     0 in        0.08 seconds (walltime).
 --invoking executable--
/nfs/workspaces/public/cfour_mpi/bin/xvprop
 @GETMEM-I,  Allocated    3814 MB of main memory.
   Property integrals will be calculated.
    --------------------------------------------------------------
                                   Property evaluated at 
    Property type                X             Y             Z
    --------------------------------------------------------------
    Dipole moment               ----          ----          ----  
    Quadrupole moment           ----          ----          ----  
    Octopole moment             ----          ----          ----  
    Relativisitic corr.         ----          ----          ----  
    Second moment            0.0000000     0.0000000     0.0000000
    Electron density         0.0000000     0.0000000     1.9001171
    Electron density         0.0000000     0.0000000    -1.2668039
    Field gradient           0.0000000     0.0000000     1.9001171
    Field gradient           0.0000000     0.0000000    -1.2668039
    Potential                0.0000000     0.0000000     1.9001171
    Potential                0.0000000     0.0000000    -1.2668039
    --------------------------------------------------------------
 @CHECKOUT-I, Total execution time (CPU/WALL):        1.31/       1.33 seconds.
--executable xvprop finished with status     0 in        1.36 seconds (walltime).
 --invoking executable--
/nfs/workspaces/public/cfour_mpi/bin/xvscf
  There are  218 functions in the AO basis.

  There are 4 irreducible representations.

       Irrep        # of functions
         1                 86
         2                 52
         3                 52
         4                 28


  Parameters for SCF calculation: 
        SCF reference function:  RHF  
  Maximum number of iterations:  150
     Full symmetry point group: CXv 
     Computational point group: C2v 
        Initial density matrix: MOREAD                 
     SCF convergence tolerance: 10**(-10)
  DIIS convergence acceleration:  ON
          Latest start for DIIS:   8
                     DIIS order:   6

  Memory information:    2523578 words required.
  Fock matrices are constructed from AO integral file.
 @GETMEM-I,  Allocated      19 MB of main memory.
  Initialization and symmetry analysis required      0.002 seconds.

  Adding electric field perturbation to one-electron Hamiltonian.
  Field direction     : Z
  Field strength      : -0.0002000 a.u.

  @INITGES-I, Occupancies from core Hamiltonian:

          Alpha population by irrep:   5    1    1    0
           Beta population by irrep:   5    1    1    0


 total no. of electrons in initial guess :  0.000000000000000E+000
  --------------------------------------------------------------------
  Iteration         Total Energy            Largest Density Difference
  --------------------------------------------------------------------
       0            15.156930686495913              0.0000000000D+00
   current occupation vector 
     5  1  1  0
     5  1  1  0
       1           -93.679069532651170              0.1755896142D+02
   current occupation vector 
     5  1  1  0
     5  1  1  0
       2           -97.817761626969499              0.1755895184D+02
   current occupation vector 
     5  1  1  0
     5  1  1  0
       3          -100.041453880750325              0.6881890181D+01
   current occupation vector 
     5  1  1  0
     5  1  1  0
       4           -94.718305208476480              0.6879333801D+01
   current occupation vector 
     5  1  1  0
     5  1  1  0
       5          -100.023304575110785              0.7033847094D+01
   current occupation vector 
     5  1  1  0
     5  1  1  0
       6           -94.588549701278325              0.7034029303D+01
   current occupation vector 
     5  1  1  0
     5  1  1  0
       7          -100.018455642470940              0.7041392324D+01
   current occupation vector 
     5  1  1  0
     5  1  1  0
       8           -94.585040465333350              0.7041401620D+01
   current occupation vector 
     5  1  1  0
     5  1  1  0
       9          -107.274415817613402              0.5997357224D+01
   current occupation vector 
     5  1  1  0
     5  1  1  0
      10          -110.598880378408197              0.1315423269D+01
   current occupation vector 
     5  1  1  0
     5  1  1  0
      11          -112.331102866583080              0.1025696674D+01
   current occupation vector 
     5  1  1  0
     5  1  1  0
      12          -112.450906968939776              0.5381904968D+00
   current occupation vector 
     5  1  1  0
     5  1  1  0
      13          -112.480367618899621              0.1315643801D+00
   current occupation vector 
     5  1  1  0
     5  1  1  0
      14          -112.489049705352357              0.9830993372D-01
   current occupation vector 
     5  1  1  0
     5  1  1  0
      15          -112.489783620252496              0.3299819535D-01
   current occupation vector 
     5  1  1  0
     5  1  1  0
      16          -112.490528525309614              0.5343673444D-01
   current occupation vector 
     5  1  1  0
     5  1  1  0
      17          -112.490883956686829              0.4276248694D-01
   current occupation vector 
     5  1  1  0
     5  1  1  0
      18          -112.490963878134593              0.2702114998D-01
   current occupation vector 
     5  1  1  0
     5  1  1  0
      19          -112.490964641270708              0.2168300366D-02
   current occupation vector 
     5  1  1  0
     5  1  1  0
      20          -112.490964652099166              0.2758615754D-03
   current occupation vector 
     5  1  1  0
     5  1  1  0
      21          -112.490964652425632              0.2323549532D-04
   current occupation vector 
     5  1  1  0
     5  1  1  0
      22          -112.490964652449222              0.1880650670D-04
   current occupation vector 
     5  1  1  0
     5  1  1  0
      23          -112.490964652448682              0.8076537523D-06
   current occupation vector 
     5  1  1  0
     5  1  1  0
      24          -112.490964652449222              0.1716866129D-06
   current occupation vector 
     5  1  1  0
     5  1  1  0
      25          -112.490964652450074              0.5510187262D-07
   current occupation vector 
     5  1  1  0
     5  1  1  0
      26          -112.490964652449620              0.8501043425D-08
   current occupation vector 
     5  1  1  0
     5  1  1  0
      27          -112.490964652449080              0.5130892600D-08
   current occupation vector 
     5  1  1  0
     5  1  1  0
      28          -112.490964652449208              0.2294165524D-08
   current occupation vector 
     5  1  1  0
     5  1  1  0
      29          -112.490964652449165              0.5479015019D-09
   current occupation vector 
     5  1  1  0
     5  1  1  0
      30          -112.490964652449890              0.1505411351D-09
   current occupation vector 
     5  1  1  0
     5  1  1  0

  SCF has converged.

 Density matrix saved to file den.dat
 total electron number:   14.0000000000001     
     E(SCF)=      -112.490964652449478              0.2623234963D-10

  Eigenvector printing suppressed.

 @PUTMOS-I, Writing converged MOs to NEWMOS. 
 @PUTMOS-I, Symmetry   1 Full Blocks 21 Partial Blocksize   2
 @PUTMOS-I, Symmetry   2 Full Blocks 13 Partial Blocksize   0
 @PUTMOS-I, Symmetry   3 Full Blocks 13 Partial Blocksize   0
 @PUTMOS-I, Symmetry   4 Full Blocks  7 Partial Blocksize   0
 @PUTFOCK-I, Writing converged Fock matrix to NEWFOCK. 
 @PUTFOCK-I, Symmetry   1 Full Blocks 21 Partial Blocksize   2
 @PUTFOCK-I, Symmetry   2 Full Blocks 13 Partial Blocksize   0
 @PUTFOCK-I, Symmetry   3 Full Blocks 13 Partial Blocksize   0
 @PUTFOCK-I, Symmetry   4 Full Blocks  7 Partial Blocksize   0


 
  ORBITAL EIGENVALUES (ALPHA)  (1H = 27.2113834 eV)

       MO #        E(hartree)               E(eV)           FULLSYM    COMPSYM
       ----   --------------------   --------------------   -------   ---------
    1     1         -20.6367605036        -561.5548021978     SG+        A1 (1)
    2     2         -11.5334411928        -313.8408902193     SG+        A1 (1)
    3     3          -1.2522078912         -34.0743090236     SG+        A1 (1)
    4     4          -0.8106428725         -22.0587140043     SG+        A1 (1)
    5     5          -0.5128853692         -13.9563204223     SG+        A1 (1)
    6   139          -0.4858030624         -13.2193733871      PI        B2 (3)
    7    87          -0.4858030624         -13.2193733871      PI        B1 (2)
  +++++++++++++++++++++++++++++++++++++++++++++++++++++++++++++++++++++++++++++
    8    88          -0.0187466191          -0.5101214387      PI        B1 (2)
    9   140          -0.0187466191          -0.5101214387      PI        B2 (3)
   10     6           0.0569083839           1.5485558529     SG+        A1 (1)
   11     7           0.0693361106           1.8867314893     SG+        A1 (1)
   12    89           0.0803972989           2.1877217238      PI        B1 (2)
   13   141           0.0803972989           2.1877217238      PI        B2 (3)
   14     8           0.1565735204           4.2605820942     SG+        A1 (1)
   15     9           0.1781029915           4.8464287874     SG+        A1 (1)
   16    90           0.1824862556           4.9657034654      PI        B1 (2)
   17   142           0.1824862556           4.9657034654      PI        B2 (3)
   18   191           0.2201080232           5.9894438082      DE        A2 (4)
   19    10           0.2201080232           5.9894438082      DE        A1 (1)
   20    91           0.2810591150           7.6480073360      PI        B1 (2)
   21   143           0.2810591150           7.6480073360      PI        B2 (3)
   22    11           0.2942218455           8.0061834439     SG+        A1 (1)
   23    12           0.3044298417           8.2839571420     SG+        A1 (1)
   24   144           0.4073990415          11.0858915153      PI        B2 (3)
   25    92           0.4073990415          11.0858915153      PI        B1 (2)
   26    13           0.4113172675          11.1925118641     SG+        A1 (1)
   27    14           0.5149807408          14.0133383812     SG+        A1 (1)
   28   192           0.5507084967          14.9855400449      DE        A2 (4)
   29    15           0.5507084967          14.9855400449      DE        A1 (1)
   30    93           0.6236926759          16.9715405280      PI        B1 (2)
   31   145           0.6236926759          16.9715405280      PI        B2 (3)
   32    16           0.6998451095          19.0437535946     SG+        A1 (1)
   33    94           0.7272783735          19.7902506587      PH        B1 (2)
   34   146           0.7272783735          19.7902506587      PH        B2 (3)
   35   193           0.7334440715          19.9580278307      DE        A2 (4)
   36    17           0.7334440715          19.9580278307      DE        A1 (1)
   37    95           0.7705300789          20.9671893972      PI        B1 (2)
   38   147           0.7705300789          20.9671893972      PI        B2 (3)
   39    18           0.8114227030          22.0799342705     SG+        A1 (1)
   40    19           0.8519163363          23.1818220505      DE        A1 (1)
   41   194           0.8519163363          23.1818220505      DE        A2 (4)
   42    96           0.8719328687          23.7264995886      PI        B1 (2)
   43   148           0.8719328687          23.7264995886      PI        B2 (3)
   44    20           0.8979772013          24.4352019097     SG+        A1 (1)
   45    97           1.0491893675          28.5498941379      PI        B1 (2)
   46   149           1.0491893675          28.5498941379      PI        B2 (3)
   47    21           1.1423392597          31.0846315683     SG+        A1 (1)
   48    22           1.3393848720          36.4465152720     SG+        A1 (1)
   49    98           1.4193070924          38.6213094540      PH        B1 (2)
   50   150           1.4193070924          38.6213094540      PH        B2 (3)
   51    99           1.4648462382          39.8604926109      PI        B1 (2)
   52   151           1.4648462382          39.8604926109      PI        B2 (3)
   53    23           1.5799544316          42.9927457927     SG+        A1 (1)
   54   195           1.5880245274          43.2123442635      DE        A2 (4)
   55    24           1.5880245274          43.2123442636      DE        A1 (1)
   56   100           1.6406144030          44.6433875321      PI        B1 (2)
   57   152           1.6406144030          44.6433875321      PI        B2 (3)
   58   196           1.6643559260          45.2894272168      DE        A2 (4)
   59    25           1.6643559260          45.2894272169      DE        A1 (1)
   60    26           1.9039396161          51.8088308643     SG+        A1 (1)
   61    27           1.9216063795          52.2895679376     SG+        A1 (1)
   62   101           2.0410769384          55.5405271193      PI        B1 (2)
   63   153           2.0410769384          55.5405271193      PI        B2 (3)
   64   197           2.0600780988          56.0575749817      PI        A2 (4)
   65    28           2.0600780988          56.0575749817      PI        A1 (1)
   66   198           2.1171729897          57.6112059479      DE        A2 (4)
   67    29           2.1171729897          57.6112059479      DE        A1 (1)
   68   102           2.1800638578          59.3225534700      PH        B1 (2)
   69   154           2.1800638578          59.3225534700      PH        B2 (3)
   70   103           2.2000974861          59.8676962123      PH        B1 (2)
   71   155           2.2000974861          59.8676962123      PH        B2 (3)
   72   156           2.2076307209          60.0726859534      PI        B2 (3)
   73   104           2.2076307209          60.0726859534      PI        B1 (2)
   74    30           2.2163509644          60.3099758418     SG+        A1 (1)
   75    31           2.2721565591          61.8285232754      DE        A1 (1)
   76   199           2.2721565591          61.8285232754      DE        A2 (4)
   77    32           2.3669293614          64.4074223339     SG+        A1 (1)
   78   157           2.4821887571          67.5437899418      PI        B2 (3)
   79   105           2.4821887571          67.5437899418      PI        B1 (2)
   80   200           2.5828900288          70.2840108544      DE        A2 (4)
   81    33           2.5828900288          70.2840108545      DE        A1 (1)
   82   106           2.6192239422          71.2727069012      PI        B1 (2)
   83   158           2.6192239422          71.2727069012      PI        B2 (3)
   84    34           2.6584315535          72.3396002442     SG+        A1 (1)
   85    35           2.8248060245          76.8668797632     SG+        A1 (1)
   86   159           3.3044152450          89.9177101441      PI        B2 (3)
   87   107           3.3044152450          89.9177101441      PI        B1 (2)
   88    36           3.7167286332         101.1373278311      PI        A1 (1)
   89   201           3.7167286332         101.1373278311      PI        A2 (4)
   90    37           3.8430695113         104.5752379046     SG+        A1 (1)
   91   160           3.8785271802         105.5400901264      PH        B2 (3)
   92   108           3.8785271802         105.5400901264      PH        B1 (2)
   93    38           4.0704478736         110.7625176976     SG+        A1 (1)
   94   109           4.1470998857         112.8483249878      PH        B1 (2)
   95   161           4.1470998857         112.8483249878      PH        B2 (3)
   96   110           4.1475750211         112.8612540801      PI        B1 (2)
   97   162           4.1475750211         112.8612540801      PI        B2 (3)
   98   202           4.1506446196         112.9447821001      DE        A2 (4)
   99    39           4.1506446196         112.9447821001      DE        A1 (1)
  100   203           4.3067968175         117.1938994282      DE        A2 (4)
  101    40           4.3067968175         117.1938994282      DE        A1 (1)
  102    41           4.3408598255         118.1208009968     SG+        A1 (1)
  103   163           4.4859072350         122.0677416672      PI        B2 (3)
  104   111           4.4859072350         122.0677416672      PI        B1 (2)
  105   204           4.6019716171         125.2260140684      DE        A2 (4)
  106    42           4.6019716171         125.2260140684      DE        A1 (1)
  107    43           4.8648369877         132.3789444511     SG+        A1 (1)
  108   164           5.0636632573         137.7892823035      PI        B2 (3)
  109   112           5.0636632573         137.7892823035      PI        B1 (2)
  110    44           5.0937297112         138.6074321075     SG+        A1 (1)
  111   165           5.3550523102         145.7183815410      PI        B2 (3)
  112   113           5.3550523102         145.7183815410      PI        B1 (2)
  113   205           5.8134106477         158.1909459959      PI        A2 (4)
  114    45           5.8134106477         158.1909459959      PI        A1 (1)
  115   166           5.8839429289         160.1102269420      PH        B2 (3)
  116   114           5.8839429289         160.1102269420      PH        B1 (2)
  117    46           5.9757914619         162.6095525886     SG+        A1 (1)
  118   206           6.0524125170         164.6945174944      DE        A2 (4)
  119    47           6.0524125170         164.6945174944      DE        A1 (1)
  120   167           6.1052975176         166.1335915228      PI        B2 (3)
  121   115           6.1052975176         166.1335915228      PI        B1 (2)
  122    48           6.1513153020         167.3857990962     SG+        A1 (1)
  123   207           6.2580987175         170.2915235569      DE        A2 (4)
  124    49           6.2580987175         170.2915235569      DE        A1 (1)
  125   168           6.3379103272         172.4633078688      PH        B2 (3)
  126   116           6.3379103272         172.4633078688      PH        B1 (2)
  127   208           6.4689746438         176.0297492365      DE        A2 (4)
  128    50           6.4689746438         176.0297492366      DE        A1 (1)
  129   117           6.7173909275         182.7894999753      PI        B1 (2)
  130   169           6.7173909275         182.7894999753      PI        B2 (3)
  131   170           7.0609860736         192.1391992311      PI        B2 (3)
  132   118           7.0609860736         192.1391992311      PI        B1 (2)
  133    51           7.0629659416         192.1930741772     SG+        A1 (1)
  134    52           7.5426714897         205.2465257675     SG+        A1 (1)
  135    53           9.3881713799         255.4651308444     SG+        A1 (1)
  136   119           9.6326243780         262.1170350980      PI        B1 (2)
  137   171           9.6326243780         262.1170350982      PI        B2 (3)
  138    54          10.6687898526         290.3125310943     SG+        A1 (1)
  139    55          10.6717668357         290.3935389228      PI        A1 (1)
  140   209          10.6717668357         290.3935389228      PI        A2 (4)
  141   172          10.7281747219         291.9284755410      PH        B2 (3)
  142   120          10.7281747219         291.9284755410      PH        B1 (2)
  143   210          10.9349187984         297.5542678721      DE        A2 (4)
  144    56          10.9349187984         297.5542678721      DE        A1 (1)
  145   121          10.9891144069         299.0290053527      PI        B1 (2)
  146   173          10.9891144069         299.0290053527      PI        B2 (3)
  147    57          11.1304739542         302.8755941904     SG+        A1 (1)
  148   174          11.9071362439         324.0096495282      PH        B2 (3)
  149   122          11.9071362439         324.0096495282      PH        B1 (2)
  150   211          11.9773212447         325.9194804949      DE        A2 (4)
  151    58          11.9773212447         325.9194804952      DE        A1 (1)
  152   123          12.2323839064         332.8600883725      PI        B1 (2)
  153   175          12.2323839064         332.8600883725      PI        B2 (3)
  154    59          12.5042809263         340.2587824275     SG+        A1 (1)
  155   212          12.7236526089         346.2281893890      DE        A2 (4)
  156    60          12.7236526089         346.2281893890      DE        A1 (1)
  157   176          13.1031159179         356.5539109777      PI        B2 (3)
  158   124          13.1031159179         356.5539109777      PI        B1 (2)
  159    61          13.3611437068         363.5752040688     SG+        A1 (1)
  160    62          17.2374248155         469.0541754837     SG+        A1 (1)
  161   177          18.6747419745         508.1655637645      PI        B2 (3)
  162   125          18.6747419745         508.1655637646      PI        B1 (2)
  163    63          19.4511950045         529.2939248548     SG+        A1 (1)
  164    64          26.2371700173         713.9496926724      DE        A1 (1)
  165   213          26.2371700173         713.9496926724      DE        A2 (4)
  166   126          26.4742768298         720.4016970521      PI        B1 (2)
  167   178          26.4742768298         720.4016970521      PI        B2 (3)
  168    65          26.9050366052         732.1232664541     SG+        A1 (1)
  169   127          33.3573936155         907.7008268967      PI        B1 (2)
  170   179          33.3573936156         907.7008268978      PI        B2 (3)
  171    66          34.2201612527         931.1779278565     SG+        A1 (1)
  172    67          35.5087045659         966.2409739807     SG+        A1 (1)
  173    68          47.0783844873        1281.0679701363      DE        A1 (1)
  174   214          47.0783844873        1281.0679701363      DE        A2 (4)
  175   128          47.2631683517        1286.0961947167      PI        B1 (2)
  176   180          47.2631683517        1286.0961947167      PI        B2 (3)
  177    69          47.4175624537        1290.2974718215     SG+        A1 (1)
  178    70          63.6743987174        1732.6684762627     SG+        A1 (1)
  179   181          66.2675059106        1803.2305102960      PI        B2 (3)
  180   129          66.2675059106        1803.2305102961      PI        B1 (2)
  181    71          66.8466688289        1818.9903345147     SG+        A1 (1)
  182   182          98.4943578098        2680.1677330995      PH        B2 (3)
  183   130          98.4943578098        2680.1677330995      PH        B1 (2)
  184   215          98.5089332186        2680.5643501369      DE        A2 (4)
  185    72          98.5089332186        2680.5643501370      DE        A1 (1)
  186   183          98.5223512419        2680.9294731139      PI        B2 (3)
  187   131          98.5223512419        2680.9294731139      PI        B1 (2)
  188    73          98.5299395737        2681.1359621175     SG+        A1 (1)
  189   216         103.3180031025        2811.4257945449      DE        A2 (4)
  190    74         103.3180031026        2811.4257945463      DE        A1 (1)
  191   184         103.3251540604        2811.6203820009      PH        B2 (3)
  192   132         103.3251540604        2811.6203820009      PH        B1 (2)
  193   185         103.3323616848        2811.8165114330      PI        B2 (3)
  194   133         103.3323616848        2811.8165114330      PI        B1 (2)
  195    75         103.3436006974        2812.1223405130     SG+        A1 (1)
  196   217         114.9439960588        3127.7851462853      DE        A2 (4)
  197    76         114.9439960588        3127.7851462853      DE        A1 (1)
  198   186         115.0599205465        3130.9396119646      PI        B2 (3)
  199   134         115.0599205465        3130.9396119646      PI        B1 (2)
  200    77         115.2438584068        3135.9448156032     SG+        A1 (1)
  201   135         116.6741158237        3174.8640985337      PI        B1 (2)
  202   187         116.6741158237        3174.8640985346      PI        B2 (3)
  203    78         117.3903422072        3194.3536092573     SG+        A1 (1)
  204    79         121.7838862487        3313.9080206558     SG+        A1 (1)
  205    80         198.5624797029        5403.1597640517      DE        A1 (1)
  206   218         198.5624797030        5403.1597640517      DE        A2 (4)
  207   136         198.6631237313        5405.8984272947      PI        B1 (2)
  208   188         198.6631237313        5405.8984272948      PI        B2 (3)
  209    81         198.7437263435        5408.0917358790     SG+        A1 (1)
  210    82         216.2037756084        5883.2038306065     SG+        A1 (1)
  211   189         224.7549234869        6115.8923940394      PI        B2 (3)
  212   137         224.7549234869        6115.8923940394      PI        B1 (2)
  213    83         225.2128264351        6128.3525667224     SG+        A1 (1)
  214   138         395.2208501986       10754.5060824291      PI        B1 (2)
  215   190         395.2208501987       10754.5060824300      PI        B2 (3)
  216    84         395.7679172868       10769.3925347109     SG+        A1 (1)
  217    85         508.5354916960       13837.9542370473     SG+        A1 (1)
  218    86         895.0148636291       24354.5926029108     SG+        A1 (1)


  VSCF finished.

 @CHECKOUT-I, Total execution time (CPU/WALL):       54.07/       9.87 seconds.
--executable xvscf finished with status     0 in        9.91 seconds (walltime).
 --invoking executable--
/nfs/workspaces/public/cfour_mpi/bin/xvtran
 @GETMEM-I,  Allocated    3814 MB of main memory.
  Full RHF integral transformation
  Transformation of IIII integrals :
  1 pass through the AO integral file was required.
     4401505 AO integrals were read.
     8560186 MO integrals were written to HF2.
  Transformation of IIJJ integrals :
  1 pass through the AO integral file was required.
    10002073 AO integrals were read.
    14354352 MO integrals were written to HF2.
  Transformation of IJIJ integrals :
  1 pass through the AO integral file was required.
    18996055 AO integrals were read.
    26722500 MO integrals were written to HF2.
  Transformation of IJKL integrals :
  1 pass through the AO integral file was required.
    14031888 AO integrals were read.
    18119052 MO integrals were written to HF2.
  Summary of active molecular orbitals: 
------------------------------------------------------------------------
 
  Index      Eigenvalue    Symmetry    Index      Eigenvalue    Symmetry
------------------------------------------------------------------------
     1       -20.6367605        1       110         4.1470999        2
     2       -11.5334412        1       111         4.1475750        2
     3        -1.2522079        1       112         4.4859072        2
     4        -0.8106429        1       113         5.0636633        2
     5        -0.5128854        1       114         5.3550523        2
     6        -0.4858031        2       115         5.8839429        2
     7        -0.4858031        3       116         6.1052975        2
     8         0.0569084        1       117         6.3379103        2
     9         0.0693361        1       118         6.7173909        2
    10         0.1565735        1       119         7.0609861        2
    11         0.1781030        1       120         9.6326244        2
    12         0.2201080        1       121        10.7281747        2
    13         0.2942218        1       122        10.9891144        2
    14         0.3044298        1       123        11.9071362        2
    15         0.4113173        1       124        12.2323839        2
    16         0.5149807        1       125        13.1031159        2
    17         0.5507085        1       126        18.6747420        2
    18         0.6998451        1       127        26.4742768        2
    19         0.7334441        1       128        33.3573936        2
    20         0.8114227        1       129        47.2631684        2
    21         0.8519163        1       130        66.2675059        2
    22         0.8979772        1       131        98.4943578        2
    23         1.1423393        1       132        98.5223512        2
    24         1.3393849        1       133       103.3251541        2
    25         1.5799544        1       134       103.3323617        2
    26         1.5880245        1       135       115.0599205        2
    27         1.6643559        1       136       116.6741158        2
    28         1.9039396        1       137       198.6631237        2
    29         1.9216064        1       138       224.7549235        2
    30         2.0600781        1       139       395.2208502        2
    31         2.1171730        1       140        -0.0187466        3
    32         2.2163510        1       141         0.0803973        3
    33         2.2721566        1       142         0.1824863        3
    34         2.3669294        1       143         0.2810591        3
    35         2.5828900        1       144         0.4073990        3
    36         2.6584316        1       145         0.6236927        3
    37         2.8248060        1       146         0.7272784        3
    38         3.7167286        1       147         0.7705301        3
    39         3.8430695        1       148         0.8719329        3
    40         4.0704479        1       149         1.0491894        3
    41         4.1506446        1       150         1.4193071        3
    42         4.3067968        1       151         1.4648462        3
    43         4.3408598        1       152         1.6406144        3
    44         4.6019716        1       153         2.0410769        3
    45         4.8648370        1       154         2.1800639        3
    46         5.0937297        1       155         2.2000975        3
    47         5.8134106        1       156         2.2076307        3
    48         5.9757915        1       157         2.4821888        3
    49         6.0524125        1       158         2.6192239        3
    50         6.1513153        1       159         3.3044152        3
    51         6.2580987        1       160         3.8785272        3
    52         6.4689746        1       161         4.1470999        3
    53         7.0629659        1       162         4.1475750        3
    54         7.5426715        1       163         4.4859072        3
    55         9.3881714        1       164         5.0636633        3
    56        10.6687899        1       165         5.3550523        3
    57        10.6717668        1       166         5.8839429        3
    58        10.9349188        1       167         6.1052975        3
    59        11.1304740        1       168         6.3379103        3
    60        11.9773212        1       169         6.7173909        3
    61        12.5042809        1       170         7.0609861        3
    62        12.7236526        1       171         9.6326244        3
    63        13.3611437        1       172        10.7281747        3
    64        17.2374248        1       173        10.9891144        3
    65        19.4511950        1       174        11.9071362        3
    66        26.2371700        1       175        12.2323839        3
    67        26.9050366        1       176        13.1031159        3
    68        34.2201613        1       177        18.6747420        3
    69        35.5087046        1       178        26.4742768        3
    70        47.0783845        1       179        33.3573936        3
    71        47.4175625        1       180        47.2631684        3
    72        63.6743987        1       181        66.2675059        3
    73        66.8466688        1       182        98.4943578        3
    74        98.5089332        1       183        98.5223512        3
    75        98.5299396        1       184       103.3251541        3
    76       103.3180031        1       185       103.3323617        3
    77       103.3436007        1       186       115.0599205        3
    78       114.9439961        1       187       116.6741158        3
    79       115.2438584        1       188       198.6631237        3
    80       117.3903422        1       189       224.7549235        3
    81       121.7838862        1       190       395.2208502        3
    82       198.5624797        1       191         0.2201080        4
    83       198.7437263        1       192         0.5507085        4
    84       216.2037756        1       193         0.7334441        4
    85       225.2128264        1       194         0.8519163        4
    86       395.7679173        1       195         1.5880245        4
    87       508.5354917        1       196         1.6643559        4
    88       895.0148636        1       197         2.0600781        4
    89        -0.0187466        2       198         2.1171730        4
    90         0.0803973        2       199         2.2721566        4
    91         0.1824863        2       200         2.5828900        4
    92         0.2810591        2       201         3.7167286        4
    93         0.4073990        2       202         4.1506446        4
    94         0.6236927        2       203         4.3067968        4
    95         0.7272784        2       204         4.6019716        4
    96         0.7705301        2       205         5.8134106        4
    97         0.8719329        2       206         6.0524125        4
    98         1.0491894        2       207         6.2580987        4
    99         1.4193071        2       208         6.4689746        4
   100         1.4648462        2       209        10.6717668        4
   101         1.6406144        2       210        10.9349188        4
   102         2.0410769        2       211        11.9773212        4
   103         2.1800639        2       212        12.7236526        4
   104         2.2000975        2       213        26.2371700        4
   105         2.2076307        2       214        47.0783845        4
   106         2.4821888        2       215        98.5089332        4
   107         2.6192239        2       216       103.3180031        4
   108         3.3044152        2       217       114.9439961        4
   109         3.8785272        2       218       198.5624797        4
------------------------------------------------------------------------
  -20.6367605036126       -11.5334411928259       -1.25220789118557     
 -0.810642872506570      -0.512885369226852      -0.485803062373209     
 -0.485803062373256       5.690838389757306E-002  6.933611061194689E-002
  0.156573520412966       0.178102991538637       0.220108023181759     
  0.294221845547721       0.304429841738589       0.411317267467099     
  0.514980740786395       0.550708496685610       0.699845109479043     
  0.733444071450301       0.811422702987808       0.851916336252824     
  0.897977201324994        1.14233925968902        1.33938487199575     
   1.57995443159664        1.58802452739511        1.66435592601477     
   1.90393961610648        1.92160637954097        2.06007809884792     
   2.11717298973705        2.21635096441954        2.27215655913210     
   2.36692936140559        2.58289002882815        2.65843155347331     
   2.82480602449608        3.71672863317538        3.84306951128975     
   4.07044787357535        4.15064461956516        4.30679681754773     
   4.34085982548108        4.60197161708468        4.86483698771186     
   5.09372971120188        5.81341064768978        5.97579146191286     
[...]
 Convergence information after    17 iterations: 
 Largest element of residual vector :  0.76532137E-06.
 Largest element of DIIS residual   :  0.32828872E-06.
 Convergence information after    18 iterations: 
 Largest element of residual vector : -0.12738266E-06.
 Largest element of DIIS residual   : -0.10946594E-06.
 Convergence information after    19 iterations: 
 Largest element of residual vector :  0.13097988E-06.
 Largest element of DIIS residual   : -0.45538118E-07.
 Perturbed amplitude equations converged in    19 iterations.
  Dominant contributions to perturbed wavefunction:
    7    7  140   22  -0.2216539743 ABAB
    7    7   22  140  -0.2216539743 ABAB
    7    7  140   45  -0.2146024569 ABAB
    7    7   45  140  -0.2146024569 ABAB
    7    0   36    0   0.2091561590 AA  
    7    0   22    0   0.1920546655 AA  
    7    0   28    0   0.1846283878 AA  
    7    7  140   32  -0.1777881826 ABAB
    7    7   32  140  -0.1777881826 ABAB
    7    7  140   28  -0.1754746521 ABAB
    7    7   28  140  -0.1754746521 ABAB
    7    0   45    0   0.1732827108 AA  
    7    0   46    0  -0.1725451188 AA  
    7    7  140   39  -0.1706141194 ABAB
    7    7   39  140  -0.1706141194 ABAB
    7    0   39    0   0.1621625725 AA  
    7    0   25    0  -0.1534331461 AA  
    7    7  140   56  -0.1533548520 ABAB
    7    7   56  140  -0.1533548520 ABAB
    7    7  140   36  -0.1503672803 ABAB
  norm of converged amps    1.59481893939008     
 Starting iterative solution of the perturbed Lambda equations.
 The DIIS procedure is used to accelerate convergence.
 Convergence criterion is 10**(-7).
 Maximum number of iterations is 100.
 Convergence information after     1 iterations: 
 Largest element of residual vector :  0.77997807E-01.
 Largest element of DIIS residual   :  0.77997807E-01.
 Convergence information after     2 iterations: 
 Largest element of residual vector : -0.17369533E-01.
 Largest element of DIIS residual   :  0.14095077E-01.
 Convergence information after     3 iterations: 
 Largest element of residual vector :  0.63492383E-02.
 Largest element of DIIS residual   :  0.61053254E-02.
 Convergence information after     4 iterations: 
 Largest element of residual vector :  0.34261647E-02.
 Largest element of DIIS residual   :  0.31964551E-02.
 Convergence information after     5 iterations: 
 Largest element of residual vector :  0.32412332E-02.
 Largest element of DIIS residual   :  0.27826073E-02.
 Convergence information after     6 iterations: 
 Largest element of residual vector :  0.18570927E-02.
 Largest element of DIIS residual   :  0.85160136E-03.
 Convergence information after     7 iterations: 
 Largest element of residual vector :  0.92042764E-03.
 Largest element of DIIS residual   :  0.45911855E-03.
 Convergence information after     8 iterations: 
 Largest element of residual vector :  0.34801763E-03.
 Largest element of DIIS residual   : -0.20426253E-03.
 Convergence information after     9 iterations: 
 Largest element of residual vector :  0.15329908E-03.
 Largest element of DIIS residual   : -0.99590113E-04.
 Convergence information after    10 iterations: 
 Largest element of residual vector : -0.89111682E-04.
 Largest element of DIIS residual   : -0.55481024E-04.
 Convergence information after    11 iterations: 
 Largest element of residual vector : -0.29511779E-04.
 Largest element of DIIS residual   : -0.93473364E-05.
 Convergence information after    12 iterations: 
 Largest element of residual vector :  0.13297047E-04.
 Largest element of DIIS residual   :  0.74079598E-05.
 Convergence information after    13 iterations: 
 Largest element of residual vector :  0.34827289E-05.
 Largest element of DIIS residual   :  0.30384311E-05.
 Convergence information after    14 iterations: 
 Largest element of residual vector :  0.37773065E-05.
 Largest element of DIIS residual   :  0.20950694E-05.
 Convergence information after    15 iterations: 
 Largest element of residual vector :  0.20809575E-05.
 Largest element of DIIS residual   :  0.99960492E-06.
 Convergence information after    16 iterations: 
 Largest element of residual vector :  0.88822137E-06.
 Largest element of DIIS residual   :  0.25806790E-06.
 Convergence information after    17 iterations: 
 Largest element of residual vector :  0.43051236E-06.
 Largest element of DIIS residual   :  0.19028755E-06.
 Convergence information after    18 iterations: 
 Largest element of residual vector :  0.78471257E-07.
 Largest element of DIIS residual   : -0.59972921E-07.
 Perturbed Lambda equations converged in    18 iterations.
  Dominant contributions to perturbed wavefunction:
    7    7  140   22  -0.1689377204 ABAB
    7    7   22  140  -0.1689377204 ABAB
    7    7  140   45  -0.1654439840 ABAB
    7    7   45  140  -0.1654439840 ABAB
    7    7  140   32  -0.1363262837 ABAB
    7    7   32  140  -0.1363262837 ABAB
    7    7  140   28  -0.1310693211 ABAB
    7    7   28  140  -0.1310693211 ABAB
    7    7  140   39  -0.1291048289 ABAB
    7    7   39  140  -0.1291048289 ABAB
    7    7  140   56  -0.1164643801 ABAB
    7    7   56  140  -0.1164643801 ABAB
    7    7  140   36  -0.1079641692 ABAB
    7    7   36  140  -0.1079641692 ABAB
    7    6   22   89  -0.1044446625 ABAB
    6    7   89   22  -0.1044446625 ABAB
    7    7  140   16   0.1040979932 ABAB
    7    7   16  140   0.1040979932 ABAB
    7    6   45   89  -0.1029558887 ABAB
    6    7   89   45  -0.1029558887 ABAB
        The DBOC first-order density matrix is being calculated 
             (Symmetry block 3, perturbation   2)
 term   2.63409334089636     
 final tnorm  0.745349628377477     
  norm contr. I: |<0|L dT/dx|0>|^2   0.000000000000000E+000
  norm contr. II: <0|[nabla(1+L)e-T][nabla e^T]|0>   2.63409334089636     
  total norm contribution   2.63409334089636     
 oo  9.790217327047481E-003
 vv  -17.5013960988397     
 vo  3.341608087642101E-002
  Correlated perturbed 1-el contribution to DBOC  -17.4581898006363       cm**-1
  SUM_I |dc_I/dx|^2 contribution to DBOC   8.81209259996123       cm**-1
 
 
  The total diagonal Born-Oppenheimer correction (DBOC) is:      0.0038696373 a.u.
  The total diagonal Born-Oppenheimer correction (DBOC) is:        849.287214 cm-1
 
 Total CC energy including DBOC  -113.041657657492     
 First-order density matrix is being calculated  (Symmetry block 3, perturbation   2)
 Calculation of the contributions of <pq||rs> to dI(i,j)/dx required   3.5 seconds.
 Calculation of the contributions of <pq||rs> to dI(a,b)/dx required  15.0 seconds.
 Calculation of the contributions of <pq||rs> to dI(i,a)/dx required   9.1 seconds.
 First-order Z-vector equations are solved for 1 perturbation.
 Convergence reached after  20 iterations.
        U*G(pq,rs) contribution is being calculated
             (Symmetry block 3, perturbation   2)

 CCSD contribution to force constants 

        0.0000000000        0.0000000000        0.0000000000
        0.0000000000        0.0000000000        0.0000000000
        0.0000000000        0.0000000000        0.0000000000
        0.0000000000        0.0000000000        0.0000000000
        0.0000000000        0.0000000000        0.0000000000
        0.0000000000        0.0000000000        0.0000000000
        0.0000000000        0.0000000000        0.0000000000
        0.0000000000        0.0000000000        0.0000000000
        0.0000000000        0.0000000000        0.0000000000
        0.0000000000        0.0000000000        0.0000000000
        0.0000000000        0.0000000000        0.0000000000
        0.0000000000       -7.2558081967        7.2558081967

 CCSD contribution to dipole derivatives 

        0.0000000000        0.0000000000        0.0000000000
        0.0000000000        0.0000000000        0.0000000000
        0.0000000000        0.0000000000        0.0000000000
        0.0000000000        0.0000000000       -0.0570857266
        0.0000000000        0.0000000000        0.0000000000
        0.0000000000        0.0000000000        0.0000000000
 @CHECKOUT-I, Total execution time (CPU/WALL):     1217.46/     460.79 seconds.
--executable xsdcc finished with status     0 in      461.01 seconds (walltime).
 --invoking executable--
/nfs/workspaces/public/cfour_mpi/bin/xanti
 @GETMEM-I,  Allocated    3814 MB of main memory.
 CCSD MO derivative gammas will be sorted to Mulliken order.
 @CHECKOUT-I, Total execution time (CPU/WALL):       11.71/      30.35 seconds.
--executable xanti finished with status     0 in       30.50 seconds (walltime).
 --invoking executable--
/nfs/workspaces/public/cfour_mpi/bin/xbcktrn
 @GETMEM-I,  Allocated    3814 MB of main memory.
 CCSD MO derivative gammas will be transformed to the AO basis.
 @CHECKOUT-I, Total execution time (CPU/WALL):       22.11/       3.22 seconds.
--executable xbcktrn finished with status     0 in        3.28 seconds (walltime).
 --invoking executable--
/nfs/workspaces/public/cfour_mpi/bin/xvdint
 @GETMEM-I,  Allocated    3814 MB of main memory.
 One- and two-electron integral derivatives are calculated
 for RHF-CC/MBPT hessians and dipole derivatives.
 Spherical gaussians are used.
  magnet F F
                    8722  records have been written to the Sort file.
  Total length of Sort file :             178609116  words.
 Evaluation of 2el integral derivatives

                      Two-electron integral gradient
                      ------------------------------

                         C #1 z     0.0000000000
                         O #2 z     0.0000000000


 C #1       0.0000000000            0.0807014063            0.0000000000
 O #2       0.0000000000           -0.0807014063            0.0000000000


 Evaluation of 2e integral derivatives required  314.80 seconds.
  contribution to Hessian
        0.0000000000        0.0000000000        0.0000000000
        0.0000000000        0.0807014063       -0.0807014063
 @CHECKOUT-I, Total execution time (CPU/WALL):      314.79/      68.91 seconds.
--executable xvdint finished with status     0 in       69.07 seconds (walltime).
 --invoking executable--
/nfs/workspaces/public/cfour_mpi/bin/xanti
 @GETMEM-I,  Allocated    3814 MB of main memory.
 CCSD MO gammas will be sorted to Mulliken order.
 @CHECKOUT-I, Total execution time (CPU/WALL):       16.62/      51.25 seconds.
--executable xanti finished with status     0 in       51.38 seconds (walltime).
 --invoking executable--
/nfs/workspaces/public/cfour_mpi/bin/xbcktrn
 @GETMEM-I,  Allocated    3814 MB of main memory.
 CCSD MO gammas will be transformed to the AO basis.
 @CHECKOUT-I, Total execution time (CPU/WALL):       62.39/      20.16 seconds.
--executable xbcktrn finished with status     0 in       20.24 seconds (walltime).
 --invoking executable--
/nfs/workspaces/public/cfour_mpi/bin/xvdint
 @GETMEM-I,  Allocated    3814 MB of main memory.
 One- and two-electron integral derivatives are calculated
 for RHF-CC/MBPT hessians and dipole derivatives.
 Spherical gaussians are used.
  magnet F F

                     Kinetic energy integral gradient
                     --------------------------------

                         C #1 z    -0.4498428095
                         O #2 z     0.4498428095


 C #1       0.0000000000            0.0000000000           -0.4498428095
 O #2       0.0000000000            0.0000000000            0.4498428095



                   Nuclear attraction integral gradient
                   ------------------------------------

                         C #1 z    12.5933540459
                         O #2 z   -12.5933540459


 C #1       0.0000000000            0.0000000000           12.5933540459
 O #2       0.0000000000            0.0000000000          -12.5933540459



                      Reorthonormalization gradient
                      -----------------------------

                         C #1 z     0.0000000000
                         O #2 z     0.0000000000


 C #1       0.0000000000            0.0000000000            0.0000000000
 O #2       0.0000000000            0.0000000000            0.0000000000



                     Kinetic energy integral Hessian
                     -------------------------------


           Symmetry 1

           C #1 z      O #2 z

 C #1 z    0.475725
 O #2 z   -0.475725    0.475725


           Symmetry 2

           C #1 x      O #2 x

 C #1 x   -0.317832
 O #2 x    0.317832   -0.317832


           Symmetry 3

           C #1 y      O #2 y

 C #1 y   -0.317832
 O #2 y    0.317832   -0.317832




           C #1 x      C #1 y      C #1 z      O #2 x      O #2 y      O #2 z

 C #1 x   -0.317832
 C #1 y    0.000000   -0.317832
 C #1 z    0.000000    0.000000    0.475725

 O #2 x    0.317832    0.000000    0.000000   -0.317832
 O #2 y    0.000000    0.317832    0.000000    0.000000   -0.317832
 O #2 z    0.000000    0.000000   -0.475725    0.000000    0.000000    0.475725




                   Nuclear attraction integral Hessian
                   -----------------------------------


           Symmetry 1

           C #1 z      O #2 z

 C #1 z   -7.538600
 O #2 z    7.538600   -7.538600


           Symmetry 2

           C #1 x      O #2 x

 C #1 x    6.269404
 O #2 x   -6.269404    6.269404


           Symmetry 3

           C #1 y      O #2 y

 C #1 y    6.269404
 O #2 y   -6.269404    6.269404




           C #1 x      C #1 y      C #1 z      O #2 x      O #2 y      O #2 z

 C #1 x    6.269404
 C #1 y    0.000000    6.269404
 C #1 z    0.000000    0.000000   -7.538600

 O #2 x   -6.269404    0.000000    0.000000    6.269404
 O #2 y    0.000000   -6.269404    0.000000    0.000000    6.269404
 O #2 z    0.000000    0.000000    7.538600    0.000000    0.000000   -7.538600




                Highest order reorthonormalization Hessian
                ------------------------------------------


           Symmetry 1

           C #1 z      O #2 z

 C #1 z    0.000000
 O #2 z    0.000000    0.000000


           Symmetry 2

           C #1 x      O #2 x

 C #1 x    0.000000
 O #2 x    0.000000    0.000000


           Symmetry 3

           C #1 y      O #2 y

 C #1 y    0.000000
 O #2 y    0.000000    0.000000




           C #1 x      C #1 y      C #1 z      O #2 x      O #2 y      O #2 z




                Electronic contributions to dipole moment
                -----------------------------------------

                               au             Debye

                    z     -0.72887535     -1.85261668

  Conversion factor used: 1 a.u. =   2.54174691 Debye 



   Electronic contributions to static part of dipole moment derivatives
   --------------------------------------------------------------------


                     Total dipole moment derivatives
                     -------------------------------


           Symmetry 1
                              Ez

               C #1 z    -5.63310331
               O #2 z    -8.36689669

           Symmetry 2
                              Ex

               C #1 x    -5.68311107
               O #2 x    -8.31688893

           Symmetry 3
                              Ey

               C #1 y    -5.68311107
               O #2 y    -8.31688893



                       Ex          Ey          Ez

      C #1    x   -5.683111    0.000000    0.000000
      C #1    y    0.000000   -5.683111    0.000000
      C #1    z    0.000000    0.000000   -5.633103

      O #2    x   -8.316889    0.000000    0.000000
      O #2    y    0.000000   -8.316889    0.000000
      O #2    z    0.000000    0.000000   -8.366897

 Evaluation of 1e integral derivatives required    1.70 seconds.
                    8815  records have been written to the Sort file.
  Total length of Sort file :             180513570  words.
 Evaluation of 2el integral derivatives

                      Two-electron integral gradient
                      ------------------------------

                         C #1 z    -6.8143793369
                         O #2 z     6.8143793369


 C #1       0.0000000000            0.0000000000           -6.8143793369
 O #2       0.0000000000            0.0000000000            6.8143793369


 Evaluation of 2e integral derivatives required  619.21 seconds.

                            Molecular gradient
                            ------------------

                         C #1 z     0.5431970915
                         O #2 z    -0.5431970915


 C #1       0.0000000000            0.0000000000            0.5431970915
 O #2       0.0000000000            0.0000000000           -0.5431970915


  Molecular gradient norm 0.768E+00

                            Molecular hessian
                            -----------------


           Symmetry 1

           C #1 z      O #2 z

 C #1 z   11.179125
 O #2 z  -11.179125   11.179125


           Symmetry 2

           C #1 x      O #2 x

 C #1 x    7.412550
 O #2 x   -7.412550    7.412550


           Symmetry 3

           C #1 y      O #2 y

 C #1 y    7.412550
 O #2 y   -7.412550    7.412550




           C #1 x      C #1 y      C #1 z      O #2 x      O #2 y      O #2 z

 C #1 x    7.412550
 C #1 y    0.000000    7.412550
 C #1 z    0.000000    0.000000   11.179125

 O #2 x   -7.412550    0.000000    0.000000    7.412550
 O #2 y    0.000000   -7.412550    0.000000    0.000000    7.412550
 O #2 z    0.000000    0.000000  -11.179125    0.000000    0.000000   11.179125




                           Total dipole moment
                           -------------------

                               au             Debye

                    z      0.53739663      1.36592624

  Conversion factor used: 1 a.u. =   2.54174691 Debye 



                     Total dipole moment derivatives
                     -------------------------------


           Symmetry 1
                              Ez

               C #1 z     0.52493571
               O #2 z    -0.52493571

           Symmetry 2
                              Ex

               C #1 x     0.18143663
               O #2 x    -0.18143663

           Symmetry 3
                              Ey

               C #1 y     0.18143663
               O #2 y    -0.18143663



                       Ex          Ey          Ez

      C #1    x    0.181437    0.000000    0.000000
      C #1    y    0.000000    0.181437    0.000000
      C #1    z    0.000000    0.000000    0.524936

      O #2    x   -0.181437    0.000000    0.000000
      O #2    y    0.000000   -0.181437    0.000000
      O #2    z    0.000000    0.000000   -0.524936

 @CHECKOUT-I, Total execution time (CPU/WALL):      620.90/     106.13 seconds.
--executable xvdint finished with status     0 in      106.33 seconds (walltime).
 --invoking executable--
/nfs/workspaces/public/cfour_mpi/bin/xjoda
  @GTFLGS-I, Hessian will be transformed to curvilinear coordinates.
  @GTFLGS-I, Hessian will be transformed to curvilinear coordinates.
  igrd and ihes are                      0                     1
  gradient from JOBARC 
   0.000000000000000   0.000000000000000   0.543197091534395
   0.000000000000000   0.000000000000000  -0.543197091534395
 
  @PROJFCM-I, Projecting force constant matrix onto totally symmetric subspace.
  Largest difference between matrix elements of symmetrized
  and unsymmetrized FCM :    -0.8713030297E-12.
  read isotopes from ZMAT file 
 
  Summary of diagonal Born-Oppenheimer correction at the correlated level
  The total diagonal Born-Oppenheimer correction (DBOC) is:      0.0038696373 a.u.
  The total diagonal Born-Oppenheimer correction (DBOC) is:        849.287214 cm-1
  The total diagonal Born-Oppenheimer correction (DBOC) is:            10.160 kJ/mole
  hellooooooo 
  readis is  F
 
 @CHECKOUT-I, Total execution time (CPU/WALL):        0.02/       0.08 seconds.
--executable xjoda finished with status     0 in        0.14 seconds (walltime).
  The final electronic energy is      -113.041657657492081 a.u. 
  This computation required                         4061.38 seconds (walltime).
