 --invoking executable--
/nfs/workspaces/public/cfour_mpi/bin/xjoda


   *************************************************************************
         <<<     CCCCCC     CCCCCC   |||     CCCCCC     CCCCCC   >>>
       <<<      CCC        CCC       |||    CCC        CCC         >>>
      <<<      CCC        CCC        |||   CCC        CCC            >>>
    <<<        CCC        CCC        |||   CCC        CCC              >>>
      <<<      CCC        CCC        |||   CCC        CCC            >>>
       <<<      CCC        CCC       |||    CCC        CCC         >>>
         <<<     CCCCCC     CCCCCC   |||     CCCCCC     CCCCCC   >>>
   *************************************************************************

     ****************************************************************
     * CFOUR Coupled-Cluster techniques for Computational Chemistry *
     ****************************************************************
 

   Department of Chemistry                Institut fuer Physikalische Chemie
   University of Florida                  Universitaet Mainz
   Gainesville, FL 32611, USA             D-55099 Mainz, Germany

   Department of Chemistry                Fakultaet fuer Chemie und Biowiss.
   Johns Hopkins University               Karlsruher Institut fuer Technologie
   Baltimore, MD 21218, USA               D-76131 Karlsruhe, Germany

   Department of Chemistry                Department of Physical Chemistry
   Southern Methodist University          Eotvos Lorand University
   Dallas, TX 75275, USA                  H-1053 Budapest, Hungary

 
                       Version 2.1
 
                     vincent.theory.phys.ucl.ac.uk                     
                     Sat  1 Mar 17:04:31 GMT 2025                      
                     integer*8 version is running
 
********************************************************************************
*                          Input from ZMAT file                                *
********************************************************************************
Carbon Monoxide DBOC calculation                                                
C                                                                               
O 1 r                                                                           
                                                                                
r=1.0862068965517242                                                            
                                                                                
                                                                                
*CFOUR(CALC=CCSD,BASIS=AUG-PCVQZ,SCF_CONV=10                                    
CC_CONV=14,DBOC=ON,MEMORY=500000000                                             
ZFIELD=-200)                                                                    
                                                                                
%isotopes                                                                       
12                                                                              
18                                                                              
********************************************************************************
  @GTFLGS-I, Hessian will be transformed to curvilinear coordinates.
    -------------------------------------------------------------------
                    CFOUR Control Parameters 
    -------------------------------------------------------------------
        External           Internal           Value            Units
          Name               Name
    -------------------------------------------------------------------
       ABCDTYPE             IABCDT         STANDARD    [  0]    ***   
       ANHARMONIC           IANHAR         OFF         [  0]    ***   
       ANH_ALGORIT          IANALG         STANDARD    [  0]    ***   
       ANH_DERIVAT          IANDER         SECOND      [  1]    ***   
       ANH_MODE             ANHMOD         VIBRATION   [  0]    ***   
       ANH_STEPSIZ          ICUBST             50000          x 10-6  
       ANH_SYMMETR          IANHSM         ABELIAN     [  0]    ***   
       AO_LADDERS           IAOLAD         SINGLEPASS  [  1]    ***   
       AV_SCF               IAVSCF         OFF         [  0]    ***   
       BASIS                IBASIS         AUG-PCVQZ   [ 52]    ***   
       BOTHVECTORS          BOTHVC         OFF         [  0]    ***   
       BOX_POTENT           IPIAB          OFF         [  0]    ***   
       BREIT                IBREIT         OFF         [  0]    ***   
       BRUCK_CONV           IBRTOL          10D-  4             ***   
       BRUECKNER            IBRKNR         OFF         [  0]    ***   
       BUFFERSIZE           IBUFFS              4096            ***   
       CACHE_RECS           ICHREC             10               ***   
       CALCLEVEL            ICLLVL         CCSD        [ 10]    ***   
       CCORBOPT             ICCORB         OFF         [  0]  x 0.01  
       CC_CONV              ICCCNV          10D- 14             ***   
       CC_EXPORDER          ICCEOR              5               ***   
       CC_EXTRAPOL          ICCEXT         DIIS        [  1]    ***   
       CC_GUESS             ICCGES         MP2         [  0]    ***   
       CC_MAXCYC            ICCCYC            100              cycles 
       CC_PROGRAM           ICCPRO         VCC         [  0]    ***   
       CHARGE               ICHRGE              0               ***   
       CHOLESKY             ICHOLE         OFF         [  0]    ***   
       CIS_CONV             ICISTL              5               ***   
       COMM_SIZE            IPSIZE            ***               ***   
       CONSTANT             ICONST         OLD         [  1]    ***   
       CONTINUUM            ICONTU         NONE        [  0]    ***   
       CONTRACTION          ICNTYP         GENERAL     [  1]    ***   
       COORDINATES          ICOORD         INTERNAL    [  0]    ***   
       CPHF_CONVER          ICPHFT          10D- 16             ***   
       CPHF_MAXCYC          ICPHFC             64              cycles 
       CUBIC                ICUBIC         OFF         [  0]    ***   
       CURVILINEAR          ICURVY         ON          [  1]    ***   
       DBOC                 IDBOC          ON          [  1]    ***   
       DCT                  IDCT           OFF         [  0]    ***   
       DERIV_LEV            IDRLVL         SECOND      [  2]    ***   
       DEVMEM_SIZE          IDVMEM          50000000           MByte  
       DIAG_MRCC            IEOMST          10D-  0             ***   
       DIFF_TYPE            IDIFTY         RELAXED     [  0]    ***   
       DIRECT               IDIRCT         OFF         [  0]    ***   
       DROPMO               IDRPMO      NONE         
       ECP                  IECP           OFF         [  0]    ***   
       EIGENVECTOR          IVEC                1               ***   
       EL_ANHARM            IELANH         OFF         [  0]    ***   
       EOMFOLLOW            IEOMSR         ENERGY      [  0]    ***   
       EOMIP                IEOMIP         OFF         [  0]    ***   
       EOMLEVEL             HBARFM         SAME        [  0]    ***   
       EOM_MRCC             IMRCCE         NEW         [  1]    ***   
       EOM_NONIT            EOMNON         OFF         [  0]    ***   
       EOM_NSING            IEOMSI          10D-  0             ***   
       EOM_NSTATES          IMRCCD         DAVIDSON    [  0]    ***   
       EOM_NTRIP            IEOMTR          10D-  0             ***   
       EOM_ORDER            IEXORD         ENERGY      [  0]    ***   
       EOM_PROPSTA          IEOMST              0               ***   
       ESTATE_CONV          IEXTOL          10D-  5             ***   
       ESTATE_DIAG          IEXDIG         ITERATIVE   [  0]    ***   
       ESTATE_LOCK          IESLOC         ON          [  1]    ***   
       ESTATE_MAXC          IEXMXC             40               ***   
       ESTATE_PROP          IEXPRP         OFF         [  0]    ***   
       EVAL_HESS            IRECAL              0            # of cyc.
       EXCITATION           IEXCIT              0               ***   
       EXCITE               IEXCIT         NONE        [  0]    ***   
       EXTERN_POT           IEXPOT         OFF         [  0]    ***   
       FCGRADNEW            IFCGNW         OFF         [  0]    ***   
       FC_FIELD             IFINFC              0             x 10-6  
       FD_CALTYPE           IFDCAL         GRADONLY    [  0]    ***   
       FD_PROJECT           IFDPRJ         OFF         [  1]    ***   
       FD_STEPSIZE          IDISFD              0            10-4 bohr
       FD_USEGROUP          IFDGRP         FULL        [  0]    ***   
       FILE_RECSIZ          IFLREC              4096           words  
       FINITE_PERT          IFIPER              0             x 10-6  
       FIXGEOM              IFIXGM         OFF         [  0]    ***   
       FOCK                 IFOCK          AO          [  1]    ***   
       FREQ_ALGORI          IVIALG         STANDARD    [  0]    ***   
       FROZEN_CORE          IFROCO         OFF         [  0]    ***   
       GAMMA_ABCD           IGABCD         STORE       [  0]    ***   
       GAMMA_ABCI           IGABCI         STORE       [  0]    ***   
       GENBAS_1             IGNBS1              0               ***   
       GENBAS_2             IGNBS2              0               ***   
       GENBAS_3             IGNBS3              0               ***   
       GENBAS_4             IGNBS4              0               ***   
       GEO_CONV             ICONTL              5              H/bohr 
       GEO_MAXCYC           IOPTCY             50               ***   
       GEO_MAXSTEP          IMXSTP            300            millibohr
       GEO_METHOD           INR            SINGLE_POINT[  5]    ***   
       GIAO                 IGIAO          OFF         [  1]    ***   
       GIMIC                IGIMIC         OFF         [  0]    ***   
       GRID                 IGRID          OFF         [  0]    ***   
       GRID_ALGO            IGALGO         SERIAL      [  0]    ***   
       GUESS                IGUESS         MOREAD      [  0]    ***   
       HBAR                 IHBAR          OFF         [  0]    ***   
       HESS_TYPE            IHESTP         SCF         [  0]    ***   
       HF2_FILE             IHF2Fl         USE         [  1]    ***   
       HFSTABILITY          ISTABL         OFF         [  0]    ***   
       INCORE               INCORE         OFF         [  0]    ***   
       INPUT_MRCC           IMRCC          ON          [  1]    ***   
       INTEGRALS            INTTYP         VMOL        [  1]    ***   
       JODA_PRINT           IJPRNT              0               ***   
       KEYWORD_OUT          IDMPKW         NO          [  0]    ***   
       LINDEP_TOL           ILINDP              8               ***   
       LINEQ_CONV           IZTACN          10D-  7           cycles  
       LINEQ_EXPOR          ILMAXD              5               ***   
       LINEQ_MAXCY          ILMAXC            100               ***   
       LINEQ_TYPE           ILTYPE         DIIS        [  1]    ***   
       LOCK_ORBOCC          ILOCOC         OFF         [  0]    ***   
       MEMORY_SIZE          IMEMSZ         500000000           words  
       MEM_UNIT             IMEMU          INTEGERWORDS[  0]    ***   
       MRCC                 IMRCCC         OFF         [  0]    ***   
       MULTIPLICTY          IMULTP              1               ***   
       NACOUPLING           IVCOUP         OFF         [  0]    ***   
       NEGEVAL              IDIE           ABORT       [  0]    ***   
       NEWNORM              INEWNO         OFF         [  0]    ***   
       NON-HF               INONHF         OFF         [  0]    ***   
       NTOP_TAMP            ITOPT2             15               ***   
       NUC_MODEL            INUCMO         POINT       [  0]    ***   
       OCCUPATION           IOCCU   ESTIMATED BY SCF 
       OPEN-SHELL           IOPEN          SPIN-ORBITAL[  0]    ***   
       OPTVIB               IOPTVB         OFF         [  0]    ***   
       ORBITALS             IORBTP         STANDARD    [  0]    ***   
       PARALLEL             IPARAL         ON          [  1]    ***   
       PARA_INT             IPINTS         ON          [  1]    ***   
       PARA_PRINT           IPPRIN              0               ***   
       PERT_ORB             IPTORB         STANDARD    [  0]    ***   
       POINTS               IGRDFD              0               ***   
       PRINT                IPRNT               0               ***   
       PROPS                IPROPS         OFF         [  0]    ***   
       PROP_INTEGR          IINTYP         INTERNAL    [  0]    ***   
       PSI                  IPSI           OFF         [  0]    ***   
       QC_ALG               IQCALG         FLM         [  0]    ***   
       QC_LINALG            IQCLIN         TRIDIAG     [  2]    ***   
       QC_MAXCYC            IQCMAX          10D-100           cycles  
       QC_MAXSCFCY          IQCMSC          10D- 15           cycles  
       QC_RTRUST            IQCRTR          10D-  0           x 10-3  
       QC_SKIPSCF           IQCSKI         OFF         [  0]    ***   
       QC_START             IQCSTA          10D-  1             ***   
       QRHFGUESS            IQGUES         OFF         [  0]    ***   
       QUARTIC              IQUART         OFF         [  0]    ***   
       RAMAN_INT            IRAMIN         OFF         [  0]    ***   
       RAMAN_ORB            IRAMRE         UNRELAXED   [  0]    ***   
       RDO                  IRDOFM         ON          [  1]    ***   
       REDUCE_REPR          REDREP         Ir          [  0]    ***   
       REFERENCE            IREFNC         RHF         [  0]    ***   
       RELATIVIST           IRELAT         OFF         [  0]    ***   
       RELAX_DENS           IRDENS         ON          [  1]    ***   
       RESET_FLAGS          IRESET         OFF         [  0]    ***   
       RESTART_CC           ICCRES         OFF         [  0]    ***   
       ROT_EVEC             ROTVEC              0               ***   
       SAVE_INTS            ISVINT         OFF         [  0]    ***   
       SCALE_ON             ISTCRT              0               ***   
       SCF_CONV             ISCFCV          10D- 10             ***   
       SCF_DAMPING          IDAMP               0             x 10-3  
       SCF_EXPORDE          IRPPOR              6               ***   
       SCF_EXPSTAR          IRPPLS              8               ***   
       SCF_EXTRAPO          IRPP           ON          [  1]    ***   
       SCF_MAXCYC           ISCFCY            150              cycles 
       SCF_NOSTOP           ISCFST         OFF         [  0]    ***   
       SCF_PRINT            ISCFPR              0               ***   
       SCF_PROG             ISCFPR         SCF         [  0]    ***   
       SD_FIELD             IFINSD              0             x 10-6  
       SOPERT               IPERSO         OFF         [  0]    ***   
       SPHERICAL            IDFGHI         ON          [  1]    ***   
       SPINORBIT            ISOCAL         OFF         [  0]    ***   
       SPINROTATIO          ISRCON         OFF         [  0]    ***   
       SPIN_FLIP            ISPFLP         OFF         [  0]    ***   
       SPIN_ORBIT           ISPORB         OFF         [  0]    ***   
       SPIN_SCAL            ISCSMP         OFF         [  0]    ***   
       STEEPSCALE           ISTPSC              1000          x 10-3  
       SUBGROUP             ISUBGP         DEFAULT     [  0]    ***   
       SUBGRPAXIS           ISBXYZ         X           [  0]    ***   
       SYMMETRY             ISYM           ON          [  0]    ***   
       SYM_CHECK            ISYMCK         OVERRIDE    [  1]    ***   
       T3_EXTRAPOL          IT3EXT         OFF         [  0]    ***   
       T4_EXTRAPOL          IT4EXP         OFF         [  0]    ***   
       TAMP_SUM             IEVERY              5               ***   
       TESTSUITE            ITESTS         OFF         [  0]    ***   
       THERMOCH             ITHERM         OFF         [  0]    ***   
       TOL_CHOLESK          ITOLCH          10D-  4             ***   
       TRANGRAD             IRESRM         OFF         [  0]    ***   
       TRANS_INV            ITRAIN         IGNORE      [  1]    ***   
       TREAT_PERT           ITREAT         SIMULTANEOUS[  0]    ***   
       TRIP_ALGORI          ITRALG         NORMAL      [  0]    ***   
       UIJ_THRESHO          IUIJTH              1               ***   
       UNITS                IUNITS         ANGSTROM    [  0]    ***   
       UNOS                 IUNOS          OFF         [  0]    ***   
       UPDATE_HESS          IHUPDT         ON          [  1]    ***   
       VIBPHASE             ISETPH         STANDARD    [  0]    ***   
       VIBRATION            IVIB           ANALYTIC    [  1]    ***   
       VIB_ALGORIT          IGEALG         STANDARD    [  0]    ***   
       VNATORB              IVNORB         OFF         [  0]    ***   
       VTRAN                IVTRAN         FULL/PARTIAL[  0]    ***   
       XFIELD               IXEFLD              0             x 10-6  
       XFORM_TOL            IXFTOL          10D- 11             ***   
       YFIELD               IYEFLD              0             x 10-6  
       ZFIELD               IZEFLD            ***             x 10-6  
       ZSCALE_EXP           IZEXPS         OFF         [  0]    ***   
    -------------------------------------------------------------------
   2 entries found in Z-matrix 
   Job Title : Carbon Monoxide DBOC calculation                                                
   There are  1 unique internal coordinates.
   Of these,  0 will be optimized.
   User supplied Z-matrix: 
--------------------------------------------------------------------------------
       SYMBOL    BOND      LENGTH    ANGLE     ANGLE     DIHED     ANGLE
                  TO      (ANGST)    WRT      (DEG)      WRT      (DEG)
--------------------------------------------------------------------------------
        C    
        O          1         r    
                  *Initial values for internal coordinates* 
                      Name             Value
                        r               1.0862068966
--------------------------------------------------------------------------------
  read isotopes from ZMAT file 
   Rotational constants (in cm-1): 
          1.9844814843             1.9844814843
   Rotational constants (in MHz): 
      59493.2665383169         59493.2665383169
********************************************************************************
   The full molecular point group is CXv .
   The largest Abelian subgroup of the full molecular point group is C2v .
   The computational point group is C2v .
********************************************************************************
--------------------------------------------------------------------------------
   Analysis of internal coordinates specified by Z-matrix 
--------------------------------------------------------------------------------
   *The nuclear repulsion energy is   23.384588038095234 a.u.
   *There is   1 degree of freedom within the tot. symm. molecular subspace.
   *Z-matrix requests optimization of   0 coordinates.
   *The optimization is constrained.
   *The following   1 parameters can have non-zero 
    derivatives within the totally symmetric subspace:
             r    [ 1]
   *The following   0 parameters are to be optimized:

   *The following coordinates must be varied in an  unconstrained optimization.
             r    [ 1]
--------------------------------------------------------------------------------


 ----------------------------------------------------------------
         Coordinates used in calculation (QCOMP) 
 ----------------------------------------------------------------
 Z-matrix   Atomic            Coordinates (in bohr)
  Symbol    Number           X              Y              Z
 ----------------------------------------------------------------
     C         6        -0.00000000     0.00000000     1.23155741
     O         8         0.00000000     0.00000000    -0.82107657
 ----------------------------------------------------------------
 
   Interatomic distance matrix (Angstroms) 
 
                 C             O    
                [ 1]        [ 2]
  C    [ 1]     0.00000
  O    [ 2]     1.08621     0.00000
 rotcon2
   Rotational constants (in cm-1): 
          1.9844814843             0.0000000000
   Rotational constants (in MHz): 
      59493.2665383169             0.0000000000
  ECPDATA file not present.   Using default ECPDATA. 
  @GTFLGS-I, Hessian will be transformed to curvilinear coordinates.
  There are  218 basis functions.
 @CHECKOUT-I, Total execution time (CPU/WALL):        0.48/       0.55 seconds.
--executable xjoda finished with status     0 in        0.64 seconds (walltime).
 --invoking executable--
/nfs/workspaces/public/cfour_mpi/bin/xvmol
 SERIAL VERSION OF MOLECULE STARTED
********************************************************************************
                    INPUT FROM MOL FILE
********************************************************************************
INTGRL        1    0    1    0    0    0    0    0    0                         
         *** CFOUR Program System (Release V0.1) ***                            
Carbon Monoxide DBOC calculation                                                
    2    2 X  Y       0.10E-08              0    0                              
   9999.00      3.00                                                            
          6.00000000    1    5    1    1    1    1    1                         
C #1  -0.000000000000000   0.000000000000000   1.231557405674244                
   16    9                                                                      
   33980.0000000000       9.100000000000000E-005 -1.900000000000000E-005        
  0.000000000000000E+000  0.000000000000000E+000  0.000000000000000E+000        
  0.000000000000000E+000  0.000000000000000E+000  0.000000000000000E+000        
  0.000000000000000E+000                                                        
   5089.00000000000       7.040000000000000E-004 -1.510000000000000E-004        
  0.000000000000000E+000  0.000000000000000E+000  0.000000000000000E+000        
  0.000000000000000E+000  0.000000000000000E+000  0.000000000000000E+000        
  0.000000000000000E+000                                                        
   1157.00000000000       3.693000000000000E-003 -7.850000000000000E-004        
  0.000000000000000E+000  0.000000000000000E+000  0.000000000000000E+000        
  0.000000000000000E+000  0.000000000000000E+000  0.000000000000000E+000        
  0.000000000000000E+000                                                        
   326.600000000000       1.536000000000000E-002 -3.324000000000000E-003        
  0.000000000000000E+000  0.000000000000000E+000  0.000000000000000E+000        
  0.000000000000000E+000  0.000000000000000E+000  0.000000000000000E+000        
  0.000000000000000E+000                                                        
   106.100000000000       5.292900000000000E-002 -1.151200000000000E-002        
  0.000000000000000E+000  0.000000000000000E+000  0.000000000000000E+000        
  0.000000000000000E+000  0.000000000000000E+000  0.000000000000000E+000        
  0.000000000000000E+000                                                        
   38.1100000000000       0.147043000000000      -3.416000000000000E-002        
  0.000000000000000E+000  0.000000000000000E+000  0.000000000000000E+000        
  0.000000000000000E+000  0.000000000000000E+000  0.000000000000000E+000        
  0.000000000000000E+000                                                        
   14.7500000000000       0.305631000000000      -7.717300000000001E-002        
  0.000000000000000E+000  0.000000000000000E+000  0.000000000000000E+000        
  0.000000000000000E+000  0.000000000000000E+000  0.000000000000000E+000        
  0.000000000000000E+000                                                        
   6.03500000000000       0.399345000000000      -0.141493000000000             
  0.000000000000000E+000  0.000000000000000E+000  0.000000000000000E+000        
  0.000000000000000E+000  0.000000000000000E+000  0.000000000000000E+000        
  0.000000000000000E+000                                                        
   2.53000000000000       0.217051000000000      -0.118019000000000             
  0.000000000000000E+000  0.000000000000000E+000  0.000000000000000E+000        
  0.000000000000000E+000  0.000000000000000E+000  0.000000000000000E+000        
  0.000000000000000E+000                                                        
  0.735500000000000       1.589400000000000E-002  0.273806000000000             
   1.00000000000000       0.000000000000000E+000  0.000000000000000E+000        
  0.000000000000000E+000  0.000000000000000E+000  0.000000000000000E+000        
  0.000000000000000E+000                                                        
  0.290500000000000      -3.084000000000000E-003  0.586510000000000             
  0.000000000000000E+000   1.00000000000000       0.000000000000000E+000        
  0.000000000000000E+000  0.000000000000000E+000  0.000000000000000E+000        
  0.000000000000000E+000                                                        
  0.111100000000000       9.779999999999999E-004  0.285430000000000             
  0.000000000000000E+000  0.000000000000000E+000   1.00000000000000             
  0.000000000000000E+000  0.000000000000000E+000  0.000000000000000E+000        
  0.000000000000000E+000                                                        
   7.21600000000000       0.000000000000000E+000  0.000000000000000E+000        
  0.000000000000000E+000  0.000000000000000E+000  0.000000000000000E+000        
   1.00000000000000       0.000000000000000E+000  0.000000000000000E+000        
  0.000000000000000E+000                                                        
   19.5700000000000       0.000000000000000E+000  0.000000000000000E+000        
  0.000000000000000E+000  0.000000000000000E+000  0.000000000000000E+000        
  0.000000000000000E+000   1.00000000000000       0.000000000000000E+000        
  0.000000000000000E+000                                                        
   53.0730000000000       0.000000000000000E+000  0.000000000000000E+000        
  0.000000000000000E+000  0.000000000000000E+000  0.000000000000000E+000        
  0.000000000000000E+000  0.000000000000000E+000   1.00000000000000             
  0.000000000000000E+000                                                        
  4.145000000000000E-002  0.000000000000000E+000  0.000000000000000E+000        
  0.000000000000000E+000  0.000000000000000E+000  0.000000000000000E+000        
  0.000000000000000E+000  0.000000000000000E+000  0.000000000000000E+000        
   1.00000000000000                                                             
   10    8                                                                      
   34.5100000000000       5.378000000000000E-003  0.000000000000000E+000        
  0.000000000000000E+000  0.000000000000000E+000  0.000000000000000E+000        
  0.000000000000000E+000  0.000000000000000E+000  0.000000000000000E+000        
   7.91500000000000       3.613200000000000E-002  0.000000000000000E+000        
  0.000000000000000E+000  0.000000000000000E+000  0.000000000000000E+000        
  0.000000000000000E+000  0.000000000000000E+000  0.000000000000000E+000        
   2.36800000000000       0.142493000000000       0.000000000000000E+000        
  0.000000000000000E+000  0.000000000000000E+000  0.000000000000000E+000        
  0.000000000000000E+000  0.000000000000000E+000  0.000000000000000E+000        
  0.813200000000000       0.342150000000000        1.00000000000000             
  0.000000000000000E+000  0.000000000000000E+000  0.000000000000000E+000        
  0.000000000000000E+000  0.000000000000000E+000  0.000000000000000E+000        
  0.289000000000000       0.463864000000000       0.000000000000000E+000        
   1.00000000000000       0.000000000000000E+000  0.000000000000000E+000        
  0.000000000000000E+000  0.000000000000000E+000  0.000000000000000E+000        
  0.100700000000000       0.250028000000000       0.000000000000000E+000        
  0.000000000000000E+000   1.00000000000000       0.000000000000000E+000        
  0.000000000000000E+000  0.000000000000000E+000  0.000000000000000E+000        
   8.18200000000000       0.000000000000000E+000  0.000000000000000E+000        
  0.000000000000000E+000  0.000000000000000E+000   1.00000000000000             
  0.000000000000000E+000  0.000000000000000E+000  0.000000000000000E+000        
   24.1860000000000       0.000000000000000E+000  0.000000000000000E+000        
  0.000000000000000E+000  0.000000000000000E+000  0.000000000000000E+000        
   1.00000000000000       0.000000000000000E+000  0.000000000000000E+000        
   71.4940000000000       0.000000000000000E+000  0.000000000000000E+000        
  0.000000000000000E+000  0.000000000000000E+000  0.000000000000000E+000        
  0.000000000000000E+000   1.00000000000000       0.000000000000000E+000        
  3.218000000000000E-002  0.000000000000000E+000  0.000000000000000E+000        
  0.000000000000000E+000  0.000000000000000E+000  0.000000000000000E+000        
  0.000000000000000E+000  0.000000000000000E+000   1.00000000000000             
    6    6                                                                      
   1.84800000000000        1.00000000000000       0.000000000000000E+000        
  0.000000000000000E+000  0.000000000000000E+000  0.000000000000000E+000        
  0.000000000000000E+000                                                        
  0.649000000000000       0.000000000000000E+000   1.00000000000000             
  0.000000000000000E+000  0.000000000000000E+000  0.000000000000000E+000        
  0.000000000000000E+000                                                        
  0.228000000000000       0.000000000000000E+000  0.000000000000000E+000        
   1.00000000000000       0.000000000000000E+000  0.000000000000000E+000        
  0.000000000000000E+000                                                        
   8.65600000000000       0.000000000000000E+000  0.000000000000000E+000        
  0.000000000000000E+000   1.00000000000000       0.000000000000000E+000        
  0.000000000000000E+000                                                        
   33.2130000000000       0.000000000000000E+000  0.000000000000000E+000        
  0.000000000000000E+000  0.000000000000000E+000   1.00000000000000             
  0.000000000000000E+000                                                        
  7.660000000000000E-002  0.000000000000000E+000  0.000000000000000E+000        
  0.000000000000000E+000  0.000000000000000E+000  0.000000000000000E+000        
   1.00000000000000                                                             
    4    4                                                                      
   1.41900000000000        1.00000000000000       0.000000000000000E+000        
  0.000000000000000E+000  0.000000000000000E+000                                
  0.485000000000000       0.000000000000000E+000   1.00000000000000             
  0.000000000000000E+000  0.000000000000000E+000                                
   24.6940000000000       0.000000000000000E+000  0.000000000000000E+000        
   1.00000000000000       0.000000000000000E+000                                
  0.187000000000000       0.000000000000000E+000  0.000000000000000E+000        
  0.000000000000000E+000   1.00000000000000                                     
    2    2                                                                      
   1.01100000000000        1.00000000000000       0.000000000000000E+000        
  0.424000000000000       0.000000000000000E+000   1.00000000000000             
          8.00000000    1    5    1    1    1    1    1                         
O #2   0.000000000000000   0.000000000000000  -0.821076573671658                
   16    9                                                                      
   61420.0000000000       9.000000000000001E-005 -2.000000000000000E-005        
  0.000000000000000E+000  0.000000000000000E+000  0.000000000000000E+000        
  0.000000000000000E+000  0.000000000000000E+000  0.000000000000000E+000        
  0.000000000000000E+000                                                        
   9199.00000000000       6.980000000000001E-004 -1.590000000000000E-004        
  0.000000000000000E+000  0.000000000000000E+000  0.000000000000000E+000        
  0.000000000000000E+000  0.000000000000000E+000  0.000000000000000E+000        
  0.000000000000000E+000                                                        
   2091.00000000000       3.664000000000000E-003 -8.290000000000000E-004        
  0.000000000000000E+000  0.000000000000000E+000  0.000000000000000E+000        
  0.000000000000000E+000  0.000000000000000E+000  0.000000000000000E+000        
  0.000000000000000E+000                                                        
   590.900000000000       1.521800000000000E-002 -3.508000000000000E-003        
  0.000000000000000E+000  0.000000000000000E+000  0.000000000000000E+000        
  0.000000000000000E+000  0.000000000000000E+000  0.000000000000000E+000        
  0.000000000000000E+000                                                        
   192.300000000000       5.242300000000000E-002 -1.215600000000000E-002        
  0.000000000000000E+000  0.000000000000000E+000  0.000000000000000E+000        
  0.000000000000000E+000  0.000000000000000E+000  0.000000000000000E+000        
  0.000000000000000E+000                                                        
   69.3200000000000       0.145921000000000      -3.626100000000000E-002        
  0.000000000000000E+000  0.000000000000000E+000  0.000000000000000E+000        
  0.000000000000000E+000  0.000000000000000E+000  0.000000000000000E+000        
  0.000000000000000E+000                                                        
   26.9700000000000       0.305258000000000      -8.299200000000000E-002        
  0.000000000000000E+000  0.000000000000000E+000  0.000000000000000E+000        
  0.000000000000000E+000  0.000000000000000E+000  0.000000000000000E+000        
  0.000000000000000E+000                                                        
   11.1000000000000       0.398508000000000      -0.152090000000000             
  0.000000000000000E+000  0.000000000000000E+000  0.000000000000000E+000        
  0.000000000000000E+000  0.000000000000000E+000  0.000000000000000E+000        
  0.000000000000000E+000                                                        
   4.68200000000000       0.216980000000000      -0.115331000000000             
  0.000000000000000E+000  0.000000000000000E+000  0.000000000000000E+000        
  0.000000000000000E+000  0.000000000000000E+000  0.000000000000000E+000        
  0.000000000000000E+000                                                        
   1.42800000000000       1.759400000000000E-002  0.288979000000000             
   1.00000000000000       0.000000000000000E+000  0.000000000000000E+000        
  0.000000000000000E+000  0.000000000000000E+000  0.000000000000000E+000        
  0.000000000000000E+000                                                        
  0.554700000000000      -2.502000000000000E-003  0.586128000000000             
  0.000000000000000E+000   1.00000000000000       0.000000000000000E+000        
  0.000000000000000E+000  0.000000000000000E+000  0.000000000000000E+000        
  0.000000000000000E+000                                                        
  0.206700000000000       9.540000000000000E-004  0.277624000000000             
  0.000000000000000E+000  0.000000000000000E+000   1.00000000000000             
  0.000000000000000E+000  0.000000000000000E+000  0.000000000000000E+000        
  0.000000000000000E+000                                                        
   12.9740000000000       0.000000000000000E+000  0.000000000000000E+000        
  0.000000000000000E+000  0.000000000000000E+000  0.000000000000000E+000        
   1.00000000000000       0.000000000000000E+000  0.000000000000000E+000        
  0.000000000000000E+000                                                        
   34.9000000000000       0.000000000000000E+000  0.000000000000000E+000        
  0.000000000000000E+000  0.000000000000000E+000  0.000000000000000E+000        
  0.000000000000000E+000   1.00000000000000       0.000000000000000E+000        
  0.000000000000000E+000                                                        
   93.8810000000000       0.000000000000000E+000  0.000000000000000E+000        
  0.000000000000000E+000  0.000000000000000E+000  0.000000000000000E+000        
  0.000000000000000E+000  0.000000000000000E+000   1.00000000000000             
  0.000000000000000E+000                                                        
  6.959000000000000E-002  0.000000000000000E+000  0.000000000000000E+000        
  0.000000000000000E+000  0.000000000000000E+000  0.000000000000000E+000        
  0.000000000000000E+000  0.000000000000000E+000  0.000000000000000E+000        
   1.00000000000000                                                             
   10    8                                                                      
   63.4200000000000       6.044000000000000E-003  0.000000000000000E+000        
  0.000000000000000E+000  0.000000000000000E+000  0.000000000000000E+000        
  0.000000000000000E+000  0.000000000000000E+000  0.000000000000000E+000        
   14.6600000000000       4.179900000000000E-002  0.000000000000000E+000        
  0.000000000000000E+000  0.000000000000000E+000  0.000000000000000E+000        
  0.000000000000000E+000  0.000000000000000E+000  0.000000000000000E+000        
   4.45900000000000       0.161143000000000       0.000000000000000E+000        
  0.000000000000000E+000  0.000000000000000E+000  0.000000000000000E+000        
  0.000000000000000E+000  0.000000000000000E+000  0.000000000000000E+000        
   1.53100000000000       0.356731000000000        1.00000000000000             
  0.000000000000000E+000  0.000000000000000E+000  0.000000000000000E+000        
  0.000000000000000E+000  0.000000000000000E+000  0.000000000000000E+000        
  0.530200000000000       0.448309000000000       0.000000000000000E+000        
   1.00000000000000       0.000000000000000E+000  0.000000000000000E+000        
  0.000000000000000E+000  0.000000000000000E+000  0.000000000000000E+000        
  0.175000000000000       0.244940000000000       0.000000000000000E+000        
  0.000000000000000E+000   1.00000000000000       0.000000000000000E+000        
  0.000000000000000E+000  0.000000000000000E+000  0.000000000000000E+000        
   14.4750000000000       0.000000000000000E+000  0.000000000000000E+000        
  0.000000000000000E+000  0.000000000000000E+000   1.00000000000000             
  0.000000000000000E+000  0.000000000000000E+000  0.000000000000000E+000        
   42.7300000000000       0.000000000000000E+000  0.000000000000000E+000        
  0.000000000000000E+000  0.000000000000000E+000  0.000000000000000E+000        
   1.00000000000000       0.000000000000000E+000  0.000000000000000E+000        
   126.140000000000       0.000000000000000E+000  0.000000000000000E+000        
  0.000000000000000E+000  0.000000000000000E+000  0.000000000000000E+000        
  0.000000000000000E+000   1.00000000000000       0.000000000000000E+000        
  5.348000000000000E-002  0.000000000000000E+000  0.000000000000000E+000        
  0.000000000000000E+000  0.000000000000000E+000  0.000000000000000E+000        
  0.000000000000000E+000  0.000000000000000E+000   1.00000000000000             
    6    6                                                                      
   3.77500000000000        1.00000000000000       0.000000000000000E+000        
  0.000000000000000E+000  0.000000000000000E+000  0.000000000000000E+000        
  0.000000000000000E+000                                                        
   1.30000000000000       0.000000000000000E+000   1.00000000000000             
  0.000000000000000E+000  0.000000000000000E+000  0.000000000000000E+000        
  0.000000000000000E+000                                                        
  0.444000000000000       0.000000000000000E+000  0.000000000000000E+000        
   1.00000000000000       0.000000000000000E+000  0.000000000000000E+000        
  0.000000000000000E+000                                                        
   14.9270000000000       0.000000000000000E+000  0.000000000000000E+000        
  0.000000000000000E+000   1.00000000000000       0.000000000000000E+000        
  0.000000000000000E+000                                                        
   57.5440000000000       0.000000000000000E+000  0.000000000000000E+000        
  0.000000000000000E+000  0.000000000000000E+000   1.00000000000000             
  0.000000000000000E+000                                                        
  0.154000000000000       0.000000000000000E+000  0.000000000000000E+000        
  0.000000000000000E+000  0.000000000000000E+000  0.000000000000000E+000        
   1.00000000000000                                                             
    4    4                                                                      
   2.66600000000000        1.00000000000000       0.000000000000000E+000        
  0.000000000000000E+000  0.000000000000000E+000                                
  0.859000000000000       0.000000000000000E+000   1.00000000000000             
  0.000000000000000E+000  0.000000000000000E+000                                
   26.4830000000000       0.000000000000000E+000  0.000000000000000E+000        
   1.00000000000000       0.000000000000000E+000                                
  0.324000000000000       0.000000000000000E+000  0.000000000000000E+000        
  0.000000000000000E+000   1.00000000000000                                     
    2    2                                                                      
   1.84600000000000        1.00000000000000       0.000000000000000E+000        
  0.714000000000000       0.000000000000000E+000   1.00000000000000             
FINISH                                                                          
 
********************************************************************************
 ONE- AND TWO-ELECTRON INTEGRALS OVER SYMMETRY-ADAPTED AOS ARE CALCULATED.

  SPHERICAL HARMONICS ARE USED.
  
  INTEGRALS LESS THAN  0.10E-13 ARE NEGLECTED.

  NUCLEAR REPULSION ENERGY :   23.3845880381 A.U.
  @MOLECU-I, ONE ELECTRON INTEGRALS (CPU/WALL):        0.05/       0.08 SECONDS.
  @TWOEL-I,    4616774 INTEGRALS OF SYMMETRY TYPE  I I I I
  @TWOEL-I,   19799069 INTEGRALS OF SYMMETRY TYPE  I J I J
  @TWOEL-I,   10434902 INTEGRALS OF SYMMETRY TYPE  I I J J
  @TWOEL-I,   14643047 INTEGRALS OF SYMMETRY TYPE  I J K L
  @TWOEL-I, TOTAL NUMBER OF 2-E INTEGRALS   49493792.
  @MOLECU-I, TWO ELECTRON INTEGRALS (CPU/WALL):      240.17/      32.68 SECONDS.
 @CHECKOUT-I, Total execution time (CPU/WALL):      240.26/      32.80 seconds.

Running with 14 threads/proc

--executable xvmol finished with status     0 in       32.98 seconds (walltime).
 --invoking executable--
/nfs/workspaces/public/cfour_mpi/bin/xvmol2ja
 @GETMEM-I,  Allocated    3814 MB of main memory.
 @CHECKOUT-I, Total execution time (CPU/WALL):        0.24/       0.04 seconds.
--executable xvmol2ja finished with status     0 in        0.08 seconds (walltime).
 --invoking executable--
/nfs/workspaces/public/cfour_mpi/bin/xvprop
 @GETMEM-I,  Allocated    3814 MB of main memory.
   Property integrals will be calculated.
    --------------------------------------------------------------
                                   Property evaluated at 
    Property type                X             Y             Z
    --------------------------------------------------------------
    Dipole moment               ----          ----          ----  
    Quadrupole moment           ----          ----          ----  
    Octopole moment             ----          ----          ----  
    Relativisitic corr.         ----          ----          ----  
    Second moment            0.0000000     0.0000000     0.0000000
    Electron density         0.0000000     0.0000000     1.2315574
    Electron density         0.0000000     0.0000000    -0.8210766
    Field gradient           0.0000000     0.0000000     1.2315574
    Field gradient           0.0000000     0.0000000    -0.8210766
    Potential                0.0000000     0.0000000     1.2315574
    Potential                0.0000000     0.0000000    -0.8210766
    --------------------------------------------------------------
 @CHECKOUT-I, Total execution time (CPU/WALL):        1.45/       1.48 seconds.
--executable xvprop finished with status     0 in        1.51 seconds (walltime).
 --invoking executable--
/nfs/workspaces/public/cfour_mpi/bin/xvscf
  There are  218 functions in the AO basis.

  There are 4 irreducible representations.

       Irrep        # of functions
         1                 86
         2                 52
         3                 52
         4                 28


  Parameters for SCF calculation: 
        SCF reference function:  RHF  
  Maximum number of iterations:  150
     Full symmetry point group: CXv 
     Computational point group: C2v 
        Initial density matrix: MOREAD                 
     SCF convergence tolerance: 10**(-10)
  DIIS convergence acceleration:  ON
          Latest start for DIIS:   8
                     DIIS order:   6

  Memory information:    2523578 words required.
  Fock matrices are constructed from AO integral file.
 @GETMEM-I,  Allocated      19 MB of main memory.
  Initialization and symmetry analysis required      0.001 seconds.

  Adding electric field perturbation to one-electron Hamiltonian.
  Field direction     : Z
  Field strength      : -0.0002000 a.u.

  @INITGES-I, Occupancies from core Hamiltonian:

          Alpha population by irrep:   5    1    1    0
           Beta population by irrep:   5    1    1    0


 total no. of electrons in initial guess :  0.000000000000000E+000
  --------------------------------------------------------------------
  Iteration         Total Energy            Largest Density Difference
  --------------------------------------------------------------------
       0            23.384752184463753              0.0000000000D+00
   current occupation vector 
     5  1  1  0
     5  1  1  0
       1           -91.443655289589543              0.1900549754D+02
   current occupation vector 
     5  1  1  0
     5  1  1  0
       2           -95.381409268443534              0.4326585966D+02
   current occupation vector 
     5  1  1  0
     5  1  1  0
       3          -103.234768833660269              0.4324715789D+02
   current occupation vector 
     5  1  1  0
     5  1  1  0
       4          -100.539173994822690              0.8460062800D+01
   current occupation vector 
     5  1  1  0
     5  1  1  0
       5          -104.080737381249577              0.8447858959D+01
   current occupation vector 
     5  1  1  0
     5  1  1  0
       6          -101.253939344223255              0.5767542782D+01
   current occupation vector 
     5  1  1  0
     5  1  1  0
       7          -103.593172893001878              0.5445805716D+01
   current occupation vector 
     5  1  1  0
     5  1  1  0
       8          -100.790363698430923              0.5424978890D+01
   current occupation vector 
     5  1  1  0
     5  1  1  0
       9          -111.101659822580572              0.3982437737D+01
   current occupation vector 
     5  1  1  0
     5  1  1  0
      10          -112.427481684016342              0.9090565541D+00
   current occupation vector 
     5  1  1  0
     5  1  1  0
      11          -112.782353866077912              0.4587860015D+00
   current occupation vector 
     5  1  1  0
     5  1  1  0
      12          -112.790055888324574              0.8261803718D-01
   current occupation vector 
     5  1  1  0
     5  1  1  0
      13          -112.790318289638762              0.1935536332D-01
   current occupation vector 
     5  1  1  0
     5  1  1  0
      14          -112.790363523154397              0.1078762531D-01
   current occupation vector 
     5  1  1  0
     5  1  1  0
      15          -112.790364308067140              0.1741229630D-02
   current occupation vector 
     5  1  1  0
     5  1  1  0
      16          -112.790364318495691              0.1240047223D-03
   current occupation vector 
     5  1  1  0
     5  1  1  0
      17          -112.790364318722354              0.2310957400D-04
   current occupation vector 
     5  1  1  0
     5  1  1  0
      18          -112.790364318730482              0.2853745482D-05
   current occupation vector 
     5  1  1  0
     5  1  1  0
      19          -112.790364318731022              0.7927368177D-06
   current occupation vector 
     5  1  1  0
     5  1  1  0
      20          -112.790364318729374              0.1051068235D-06
   current occupation vector 
     5  1  1  0
     5  1  1  0
      21          -112.790364318731562              0.7884173758D-08
   current occupation vector 
     5  1  1  0
     5  1  1  0
      22          -112.790364318731051              0.9156197025D-09
   current occupation vector 
     5  1  1  0
     5  1  1  0
      23          -112.790364318730795              0.1850759546D-09
   current occupation vector 
     5  1  1  0
     5  1  1  0
      24          -112.790364318731136              0.2728451909D-09
   current occupation vector 
     5  1  1  0
     5  1  1  0
      25          -112.790364318730482              0.1895490431D-09
   current occupation vector 
     5  1  1  0
     5  1  1  0
      26          -112.790364318730425              0.1623023937D-09
   current occupation vector 
     5  1  1  0
     5  1  1  0

  SCF has converged.

 Density matrix saved to file den.dat
 total electron number:   13.9999999999999     
     E(SCF)=      -112.790364318731221              0.3004752003D-10

  Eigenvector printing suppressed.

 @PUTMOS-I, Writing converged MOs to NEWMOS. 
 @PUTMOS-I, Symmetry   1 Full Blocks 21 Partial Blocksize   2
 @PUTMOS-I, Symmetry   2 Full Blocks 13 Partial Blocksize   0
 @PUTMOS-I, Symmetry   3 Full Blocks 13 Partial Blocksize   0
 @PUTMOS-I, Symmetry   4 Full Blocks  7 Partial Blocksize   0
 @PUTFOCK-I, Writing converged Fock matrix to NEWFOCK. 
 @PUTFOCK-I, Symmetry   1 Full Blocks 21 Partial Blocksize   2
 @PUTFOCK-I, Symmetry   2 Full Blocks 13 Partial Blocksize   0
 @PUTFOCK-I, Symmetry   3 Full Blocks 13 Partial Blocksize   0
 @PUTFOCK-I, Symmetry   4 Full Blocks  7 Partial Blocksize   0


 
  ORBITAL EIGENVALUES (ALPHA)  (1H = 27.2113834 eV)

       MO #        E(hartree)               E(eV)           FULLSYM    COMPSYM
       ----   --------------------   --------------------   -------   ---------
    1     1         -20.6633315561        -562.2778372934     SG+        A1 (1)
    2     2         -11.3412028743        -308.6098196306     SG+        A1 (1)
    3     3          -1.5513188089         -42.2135308855     SG+        A1 (1)
    4     4          -0.8083821377         -21.9971962816     SG+        A1 (1)
    5    87          -0.6593805443         -17.9426567976      PI        B1 (2)
    6   139          -0.6593805443         -17.9426567976      PI        B2 (3)
    7     5          -0.5499178516         -14.9640254972     SG+        A1 (1)
  +++++++++++++++++++++++++++++++++++++++++++++++++++++++++++++++++++++++++++++
    8     6           0.0597798057           1.6266912122     SG+        A1 (1)
    9    88           0.0634177090           1.7256835945      PI        B1 (2)
   10   140           0.0634177090           1.7256835945      PI        B2 (3)
   11     7           0.0743939043           2.0243610537     SG+        A1 (1)
   12    89           0.1496502879           4.0721913610      PI        B1 (2)
   13   141           0.1496502879           4.0721913610      PI        B2 (3)
   14     8           0.1565791244           4.2607345856     SG+        A1 (1)
   15    90           0.1700535431           4.6273921593      PI        B1 (2)
   16   142           0.1700535431           4.6273921593      PI        B2 (3)
   17     9           0.2276754110           6.1953628995      DE        A1 (1)
   18   191           0.2276754110           6.1953628995      DE        A2 (4)
   19    10           0.2278332241           6.1996572121     SG+        A1 (1)
   20    11           0.3013454944           8.2000277839     SG+        A1 (1)
   21    91           0.3250620499           8.8453880685      PI        B1 (2)
   22   143           0.3250620499           8.8453880685      PI        B2 (3)
   23    12           0.3928299921          10.6894475266     SG+        A1 (1)
   24    92           0.3969220870          10.8007990888      PI        B1 (2)
   25   144           0.3969220870          10.8007990888      PI        B2 (3)
   26    13           0.5084373509          13.8352836911     SG+        A1 (1)
   27   192           0.5317755990          14.4703497075      DE        A2 (4)
   28    14           0.5317755990          14.4703497075      DE        A1 (1)
   29    93           0.6220045016          16.9256029685      PI        B1 (2)
   30   145           0.6220045016          16.9256029685      PI        B2 (3)
   31    15           0.6546096588          17.8128344021     SG+        A1 (1)
   32   146           0.7492693422          20.3886553405      PH        B2 (3)
   33    94           0.7492693422          20.3886553405      PH        B1 (2)
   34    16           0.7696313915          20.9427348702      DE        A1 (1)
   35   193           0.7696313915          20.9427348703      DE        A2 (4)
   36    17           0.7814280740          21.2637389213     SG+        A1 (1)
   37    95           0.8284490646          22.5432451253      PI        B1 (2)
   38   147           0.8284490646          22.5432451253      PI        B2 (3)
   39    18           0.8740640890          23.7844930419     SG+        A1 (1)
   40    96           0.8779977362          23.8915330249      PI        B1 (2)
   41   148           0.8779977362          23.8915330249      PI        B2 (3)
   42   194           0.8939038900          24.3243614734      DE        A2 (4)
   43    19           0.8939038900          24.3243614734      DE        A1 (1)
   44    20           0.9291676164          25.2839362526     SG+        A1 (1)
   45    97           1.0868333026          29.5742376900      PI        B1 (2)
   46   149           1.0868333026          29.5742376900      PI        B2 (3)
   47    21           1.2318064571          33.5191577800     SG+        A1 (1)
   48   150           1.4506690883          39.4747127496      PH        B2 (3)
   49    98           1.4506690883          39.4747127496      PH        B1 (2)
   50    22           1.4937097650          40.6459091038     SG+        A1 (1)
   51   195           1.5115038576          41.1301109802      DE        A2 (4)
   52    23           1.5115038576          41.1301109802      DE        A1 (1)
   53   151           1.5470557493          42.0975271360      PI        B2 (3)
   54    99           1.5470557493          42.0975271360      PI        B1 (2)
   55    24           1.6646040429          45.2961788197     SG+        A1 (1)
   56    25           1.7597214247          47.8844543654     SG+        A1 (1)
   57   196           1.7732770453          48.2533215540      DE        A2 (4)
   58    26           1.7732770453          48.2533215540      DE        A1 (1)
   59   100           1.8375966113          50.0035459235      PI        B1 (2)
   60   152           1.8375966113          50.0035459235      PI        B2 (3)
   61   101           1.9530662267          53.1456338999      PI        B1 (2)
   62   153           1.9530662267          53.1456339000      PI        B2 (3)
   63    27           2.1081958302          57.3669250184      PI        A1 (1)
   64   197           2.1081958302          57.3669250184      PI        A2 (4)
   65    28           2.1614591231          58.8162929022     SG+        A1 (1)
   66    29           2.2049567310          59.9999229890      DE        A1 (1)
   67   198           2.2049567310          59.9999229890      DE        A2 (4)
   68   102           2.2551074180          61.3645925596      PH        B1 (2)
   69   154           2.2551074180          61.3645925596      PH        B2 (3)
   70    30           2.3199619794          63.1293748958     SG+        A1 (1)
   71   155           2.3331015433          63.4869206068      PI        B2 (3)
   72   103           2.3331015433          63.4869206068      PI        B1 (2)
   73    31           2.3705882763          64.5069864705      DE        A1 (1)
   74   199           2.3705882763          64.5069864705      DE        A2 (4)
   75   104           2.3788674405          64.7322739824      PH        B1 (2)
   76   156           2.3788674405          64.7322739824      PH        B2 (3)
   77    32           2.4991647197          68.0057293679     SG+        A1 (1)
   78   157           2.6047616555          70.8791680738      PI        B2 (3)
   79   105           2.6047616555          70.8791680738      PI        B1 (2)
   80   106           2.8745137627          78.2194960852      PI        B1 (2)
   81   158           2.8745137627          78.2194960852      PI        B2 (3)
   82    33           3.0005477771          81.6490559717     SG+        A1 (1)
   83   200           3.0443302422          82.8404374160      DE        A2 (4)
   84    34           3.0443302422          82.8404374162      DE        A1 (1)
   85    35           3.4580988081          94.0996525027     SG+        A1 (1)
   86   201           3.7323419090         101.5621866670      PI        A2 (4)
   87    36           3.7323419090         101.5621866670      PI        A1 (1)
   88   107           3.7600637955         102.3165375480      PI        B1 (2)
   89   159           3.7600637955         102.3165375481      PI        B2 (3)
   90    37           3.9619094741         107.8090376969     SG+        A1 (1)
   91   108           4.0786175950         110.9848271185      PH        B1 (2)
   92   160           4.0786175950         110.9848271185      PH        B2 (3)
   93   202           4.1754633916         113.6201352205      DE        A2 (4)
   94    38           4.1754633916         113.6201352205      DE        A1 (1)
   95   109           4.2110954242         114.5897321227      PI        B1 (2)
   96   161           4.2110954242         114.5897321227      PI        B2 (3)
   97    39           4.2856015915         116.6171480050     SG+        A1 (1)
   98   110           4.3315095730         117.8663676922      PH        B1 (2)
   99   162           4.3315095730         117.8663676922      PH        B2 (3)
  100    40           4.4003747677         119.7402849088      DE        A1 (1)
  101   203           4.4003747677         119.7402849088      DE        A2 (4)
  102    41           4.6036170601         125.2707888479     SG+        A1 (1)
  103   111           4.7685919075         129.7599826731      PI        B1 (2)
  104   163           4.7685919075         129.7599826732      PI        B2 (3)
  105    42           4.9733696675         135.3322688130     SG+        A1 (1)
  106    43           5.1741421905         140.7955669114      DE        A1 (1)
  107   204           5.1741421905         140.7955669115      DE        A2 (4)
  108   164           5.1920917073         141.2839980959      PI        B2 (3)
  109   112           5.1920917073         141.2839980959      PI        B1 (2)
  110   113           5.8641661264         159.5720727864      PI        B1 (2)
  111   165           5.8641661264         159.5720727864      PI        B2 (3)
  112    44           5.9073262953         160.7465206905      PI        A1 (1)
  113   205           5.9073262953         160.7465206905      PI        A2 (4)
  114    45           6.0025628058         163.3380378923     SG+        A1 (1)
  115   166           6.1797702382         168.1600972752      PH        B2 (3)
  116   114           6.1797702382         168.1600972752      PH        B1 (2)
  117    46           6.2231356457         169.3401300057     SG+        A1 (1)
  118   206           6.3169347550         171.8925335313      DE        A2 (4)
  119    47           6.3169347550         171.8925335313      DE        A1 (1)
  120   115           6.3409705512         172.5465807968      PI        B1 (2)
  121   167           6.3409705512         172.5465807968      PI        B2 (3)
  122   116           6.4526203384         175.5847259640      PH        B1 (2)
  123   168           6.4526203384         175.5847259640      PH        B2 (3)
  124   207           6.6174921947         180.0711172571      DE        A2 (4)
  125    48           6.6174921947         180.0711172573      DE        A1 (1)
  126    49           7.1156011804         193.6253518423     SG+        A1 (1)
  127    50           7.5198888138         204.6265776370      DE        A1 (1)
  128   208           7.5198888138         204.6265776371      DE        A2 (4)
  129   117           7.5996174641         206.7961045092      PI        B1 (2)
  130   169           7.5996174641         206.7961045092      PI        B2 (3)
  131    51           7.8965062098         214.8748579944     SG+        A1 (1)
  132    52           8.3994947594         228.5618722648     SG+        A1 (1)
  133   118           8.6204619086         234.5746940802      PI        B1 (2)
  134   170           8.6204619086         234.5746940803      PI        B2 (3)
  135   119          10.1229111051         275.4584152059      PI        B1 (2)
  136   171          10.1229111051         275.4584152060      PI        B2 (3)
  137    53          10.3486528911         281.6011614935     SG+        A1 (1)
  138   209          10.6006749615         288.4590306770      PI        A2 (4)
  139    54          10.6006749615         288.4590306770      PI        A1 (1)
  140   172          10.9147380795         297.0051225911      PH        B2 (3)
  141   120          10.9147380795         297.0051225911      PH        B1 (2)
  142   210          11.1794902797         304.2093962186      DE        A2 (4)
  143    55          11.1794902797         304.2093962187      DE        A1 (1)
  144    56          11.2121473262         305.0980396306     SG+        A1 (1)
  145   121          11.3941484953         310.0505432234      PI        B1 (2)
  146   173          11.3941484953         310.0505432234      PI        B2 (3)
  147   174          11.8560739307         322.6201733476      PH        B2 (3)
  148   122          11.8560739307         322.6201733476      PH        B1 (2)
  149    57          11.8659698058         322.8894537983     SG+        A1 (1)
  150    58          12.3367625078         335.7003745141      DE        A1 (1)
  151   211          12.3367625078         335.7003745141      DE        A2 (4)
  152   123          12.7372340849         346.5977601402      PI        B1 (2)
  153   175          12.7372340849         346.5977601403      PI        B2 (3)
  154   212          12.9147568167         351.4283992563      DE        A2 (4)
  155    59          12.9147568167         351.4283992563      DE        A1 (1)
  156    60          13.5028244665         367.4305335415     SG+        A1 (1)
  157   124          14.4256390663         392.5415954228      PI        B1 (2)
  158   176          14.4256390663         392.5415954228      PI        B2 (3)
  159    61          15.7789643230         429.3674478485     SG+        A1 (1)
  160    62          18.1249147906         493.2040054585     SG+        A1 (1)
  161   125          19.4944407220         530.4707006556      PI        B1 (2)
  162   177          19.4944407220         530.4707006559      PI        B2 (3)
  163    63          20.8440033206         567.1941659486     SG+        A1 (1)
  164    64          26.5859254875         723.4398114843      DE        A1 (1)
  165   213          26.5859254875         723.4398114843      DE        A2 (4)
  166   126          27.1478765414         738.7312770627      PI        B1 (2)
  167   178          27.1478765414         738.7312770627      PI        B2 (3)
  168    65          28.4241595209         773.4607025450     SG+        A1 (1)
  169   127          33.8212565832         920.3231799555      PI        B1 (2)
  170   179          33.8212565832         920.3231799561      PI        B2 (3)
  171    66          35.1678791121         956.9666418829     SG+        A1 (1)
  172    67          37.0553348239        1008.3269229085     SG+        A1 (1)
  173   214          47.1376267162        1282.6800331419      DE        A2 (4)
  174    68          47.1376267162        1282.6800331419      DE        A1 (1)
  175   128          47.8485813592        1302.0260925110      PI        B1 (2)
  176   180          47.8485813592        1302.0260925110      PI        B2 (3)
  177    69          48.6815189011        1324.6914753109     SG+        A1 (1)
  178    70          64.3333806090        1750.6002851698     SG+        A1 (1)
  179   129          66.9286674460        1821.2216303243      PI        B1 (2)
  180   181          66.9286674460        1821.2216303246      PI        B2 (3)
  181    71          67.9471356526        1848.9355591746     SG+        A1 (1)
  182   182          98.6982422151        2685.7157098214      PH        B2 (3)
  183   130          98.6982422151        2685.7157098214      PH        B1 (2)
  184   215          98.7255339005        2686.4583543355      DE        A2 (4)
  185    72          98.7255339005        2686.4583543355      DE        A1 (1)
  186   183          98.8002314864        2688.4909789844      PI        B2 (3)
  187   131          98.8002314864        2688.4909789844      PI        B1 (2)
  188    73          98.8130982942        2688.8411026247     SG+        A1 (1)
  189   132         103.2865565686        2810.5700908535      PH        B1 (2)
  190   184         103.2865565686        2810.5700908535      PH        B2 (3)
  191   216         103.3432491330        2812.1127739605      DE        A2 (4)
  192    74         103.3432491331        2812.1127739633      DE        A1 (1)
  193   133         103.3737501859        2812.9427498043      PI        B1 (2)
  194   185         103.3737501859        2812.9427498043      PI        B2 (3)
  195    75         103.4483130811        2814.9717093317     SG+        A1 (1)
  196    76         115.2268183251        3135.4811314072      DE        A1 (1)
  197   217         115.2268183251        3135.4811314073      DE        A2 (4)
  198   134         115.4999277106        3142.9128156053      PI        B1 (2)
  199   186         115.4999277106        3142.9128156054      PI        B2 (3)
  200    77         116.1228539932        3159.8635015114     SG+        A1 (1)
  201   135         117.0661387224        3185.5315839318      PI        B1 (2)
  202   187         117.0661387224        3185.5315839327      PI        B2 (3)
  203    78         118.2927776413        3218.9101258470     SG+        A1 (1)
  204    79         123.0476105754        3348.2957078209     SG+        A1 (1)
  205   218         198.5903898220        5403.9192370030      DE        A2 (4)
  206    80         198.5903898220        5403.9192370031      DE        A1 (1)
  207   188         198.9779065446        5414.4641031146      PI        B2 (3)
  208   136         198.9779065446        5414.4641031146      PI        B1 (2)
  209    81         199.4037195383        5426.0510637421     SG+        A1 (1)
  210    82         216.8034030212        5899.5205220347     SG+        A1 (1)
  211   137         225.3340255939        6131.6505635013      PI        B1 (2)
  212   189         225.3340255939        6131.6505635016      PI        B2 (3)
  213    83         226.1617533882        6154.1741818637     SG+        A1 (1)
  214   138         395.5218842439       10762.6976352509      PI        B1 (2)
  215   190         395.5218842439       10762.6976352523      PI        B2 (3)
  216    84         396.4997740758       10789.3073703898     SG+        A1 (1)
  217    85         509.5437548504       13865.3904723099     SG+        A1 (1)
  218    86         895.6398935121       24371.6005306934     SG+        A1 (1)


  VSCF finished.

 @CHECKOUT-I, Total execution time (CPU/WALL):       49.43/      12.40 seconds.
--executable xvscf finished with status     0 in       12.44 seconds (walltime).
 --invoking executable--
/nfs/workspaces/public/cfour_mpi/bin/xvtran
 @GETMEM-I,  Allocated    3814 MB of main memory.
  Full RHF integral transformation
  Transformation of IIII integrals :
  1 pass through the AO integral file was required.
     4616774 AO integrals were read.
     8846831 MO integrals were written to HF2.
  Transformation of IIJJ integrals :
  1 pass through the AO integral file was required.
    10434902 AO integrals were read.
    14655299 MO integrals were written to HF2.
  Transformation of IJIJ integrals :
  1 pass through the AO integral file was required.
    19799069 AO integrals were read.
    27609790 MO integrals were written to HF2.
  Transformation of IJKL integrals :
  1 pass through the AO integral file was required.
    14643047 AO integrals were read.
    18653835 MO integrals were written to HF2.
  Summary of active molecular orbitals: 
------------------------------------------------------------------------
 
  Index      Eigenvalue    Symmetry    Index      Eigenvalue    Symmetry
------------------------------------------------------------------------
     1       -20.6633316        1       110         4.2110954        2
     2       -11.3412029        1       111         4.3315096        2
     3        -1.5513188        1       112         4.7685919        2
     4        -0.8083821        1       113         5.1920917        2
     5        -0.5499179        1       114         5.8641661        2
     6        -0.6593805        2       115         6.1797702        2
     7        -0.6593805        3       116         6.3409706        2
     8         0.0597798        1       117         6.4526203        2
     9         0.0743939        1       118         7.5996175        2
    10         0.1565791        1       119         8.6204619        2
    11         0.2276754        1       120        10.1229111        2
    12         0.2278332        1       121        10.9147381        2
    13         0.3013455        1       122        11.3941485        2
    14         0.3928300        1       123        11.8560739        2
    15         0.5084374        1       124        12.7372341        2
    16         0.5317756        1       125        14.4256391        2
    17         0.6546097        1       126        19.4944407        2
    18         0.7696314        1       127        27.1478765        2
    19         0.7814281        1       128        33.8212566        2
    20         0.8740641        1       129        47.8485814        2
    21         0.8939039        1       130        66.9286674        2
    22         0.9291676        1       131        98.6982422        2
    23         1.2318065        1       132        98.8002315        2
    24         1.4937098        1       133       103.2865566        2
    25         1.5115039        1       134       103.3737502        2
    26         1.6646040        1       135       115.4999277        2
    27         1.7597214        1       136       117.0661387        2
    28         1.7732770        1       137       198.9779065        2
    29         2.1081958        1       138       225.3340256        2
    30         2.1614591        1       139       395.5218842        2
    31         2.2049567        1       140         0.0634177        3
    32         2.3199620        1       141         0.1496503        3
    33         2.3705883        1       142         0.1700535        3
    34         2.4991647        1       143         0.3250620        3
    35         3.0005478        1       144         0.3969221        3
    36         3.0443302        1       145         0.6220045        3
    37         3.4580988        1       146         0.7492693        3
    38         3.7323419        1       147         0.8284491        3
    39         3.9619095        1       148         0.8779977        3
    40         4.1754634        1       149         1.0868333        3
    41         4.2856016        1       150         1.4506691        3
    42         4.4003748        1       151         1.5470557        3
    43         4.6036171        1       152         1.8375966        3
    44         4.9733697        1       153         1.9530662        3
    45         5.1741422        1       154         2.2551074        3
    46         5.9073263        1       155         2.3331015        3
    47         6.0025628        1       156         2.3788674        3
    48         6.2231356        1       157         2.6047617        3
    49         6.3169348        1       158         2.8745138        3
    50         6.6174922        1       159         3.7600638        3
    51         7.1156012        1       160         4.0786176        3
    52         7.5198888        1       161         4.2110954        3
    53         7.8965062        1       162         4.3315096        3
    54         8.3994948        1       163         4.7685919        3
    55        10.3486529        1       164         5.1920917        3
    56        10.6006750        1       165         5.8641661        3
    57        11.1794903        1       166         6.1797702        3
    58        11.2121473        1       167         6.3409706        3
    59        11.8659698        1       168         6.4526203        3
    60        12.3367625        1       169         7.5996175        3
    61        12.9147568        1       170         8.6204619        3
    62        13.5028245        1       171        10.1229111        3
    63        15.7789643        1       172        10.9147381        3
    64        18.1249148        1       173        11.3941485        3
    65        20.8440033        1       174        11.8560739        3
    66        26.5859255        1       175        12.7372341        3
    67        28.4241595        1       176        14.4256391        3
    68        35.1678791        1       177        19.4944407        3
    69        37.0553348        1       178        27.1478765        3
    70        47.1376267        1       179        33.8212566        3
    71        48.6815189        1       180        47.8485814        3
    72        64.3333806        1       181        66.9286674        3
    73        67.9471357        1       182        98.6982422        3
    74        98.7255339        1       183        98.8002315        3
    75        98.8130983        1       184       103.2865566        3
    76       103.3432491        1       185       103.3737502        3
    77       103.4483131        1       186       115.4999277        3
    78       115.2268183        1       187       117.0661387        3
    79       116.1228540        1       188       198.9779065        3
    80       118.2927776        1       189       225.3340256        3
    81       123.0476106        1       190       395.5218842        3
    82       198.5903898        1       191         0.2276754        4
    83       199.4037195        1       192         0.5317756        4
    84       216.8034030        1       193         0.7696314        4
    85       226.1617534        1       194         0.8939039        4
    86       396.4997741        1       195         1.5115039        4
    87       509.5437549        1       196         1.7732770        4
    88       895.6398935        1       197         2.1081958        4
    89         0.0634177        2       198         2.2049567        4
    90         0.1496503        2       199         2.3705883        4
    91         0.1700535        2       200         3.0443302        4
    92         0.3250620        2       201         3.7323419        4
    93         0.3969221        2       202         4.1754634        4
    94         0.6220045        2       203         4.4003748        4
    95         0.7492693        2       204         5.1741422        4
    96         0.8284491        2       205         5.9073263        4
    97         0.8779977        2       206         6.3169348        4
    98         1.0868333        2       207         6.6174922        4
    99         1.4506691        2       208         7.5198888        4
   100         1.5470557        2       209        10.6006750        4
   101         1.8375966        2       210        11.1794903        4
   102         1.9530662        2       211        12.3367625        4
   103         2.2551074        2       212        12.9147568        4
   104         2.3331015        2       213        26.5859255        4
   105         2.3788674        2       214        47.1376267        4
   106         2.6047617        2       215        98.7255339        4
   107         2.8745138        2       216       103.3432491        4
   108         3.7600638        2       217       115.2268183        4
   109         4.0786176        2       218       198.5903898        4
------------------------------------------------------------------------
  -20.6633315560637       -11.3412028743299       -1.55131880893171     
 -0.808382137659690      -0.549917851555874      -0.659380544305431     
 -0.659380544305430       5.977980568878573E-002  7.439390434464063E-002
  0.156579124366960       0.227675411001472       0.227833224096329     
  0.301345494397970       0.392829992119721       0.508437350930838     
  0.531775599012260       0.654609658769931       0.769631391480348     
  0.781428074007179       0.874064088998337       0.893903889994120     
  0.929167616395169        1.23180645714767        1.49370976500299     
   1.51150385761744        1.66460404286783        1.75972142472541     
   1.77327704529768        2.10819583022186        2.16145912310519     
   2.20495673104953        2.31996197943551        2.37058827631914     
   2.49916471971495        3.00054777706254        3.04433024218159     
   3.45809880811630        3.73234190904915        3.96190947414010     
   4.17546339156526        4.28560159146545        4.40037476774465     
   4.60361706005544        4.97336966752602        5.17414219048486     
   5.90732629530541        6.00256280584083        6.22313564571363     
   6.31693475500893        6.61749219472800        7.11560118043488     
   7.51988881377422        7.89650620976348        8.39949475941848     
   10.3486528911109        10.6006749615312        11.1794902797429     
   11.2121473262017        11.8659698057951        12.3367625077859     
   12.9147568166743        13.5028244665244        15.7789643230147     
   18.1249147905690        20.8440033206310        26.5859254875029     
   28.4241595208656        35.1678791120504        37.0553348239004     
[...]
 Convergence information after     8 iterations: 
 Largest element of residual vector : -0.19405023E-04.
 Largest element of DIIS residual   :  0.15886777E-04.
 Convergence information after     9 iterations: 
 Largest element of residual vector :  0.68492672E-05.
 Largest element of DIIS residual   :  0.43440510E-05.
 Convergence information after    10 iterations: 
 Largest element of residual vector :  0.33313441E-05.
 Largest element of DIIS residual   :  0.21023707E-05.
 Convergence information after    11 iterations: 
 Largest element of residual vector :  0.11774798E-05.
 Largest element of DIIS residual   :  0.59158586E-06.
 Convergence information after    12 iterations: 
 Largest element of residual vector :  0.47450078E-06.
 Largest element of DIIS residual   :  0.28582396E-06.
 Convergence information after    13 iterations: 
 Largest element of residual vector :  0.20719152E-06.
 Largest element of DIIS residual   :  0.17249809E-06.
 Convergence information after    14 iterations: 
 Largest element of residual vector :  0.12521258E-06.
 Largest element of DIIS residual   :  0.74438856E-07.
 Perturbed amplitude equations converged in    14 iterations.
  Dominant contributions to perturbed wavefunction:
    7    7  142   37   0.2081005750 ABAB
    7    7   37  142   0.2081005750 ABAB
    7    7  142   27   0.2049797059 ABAB
    7    7   27  142   0.2049797059 ABAB
    7    7  142   55   0.1600925667 ABAB
    7    7   55  142   0.1600925667 ABAB
    7    7  141   37   0.1576712249 ABAB
    7    7   37  141   0.1576712249 ABAB
    7    7  141   27   0.1542961720 ABAB
    7    7   27  141   0.1542961720 ABAB
    7    7  141   55   0.1457988042 ABAB
    7    7   55  141   0.1457988042 ABAB
    7    7  142   63   0.1423504274 ABAB
    7    7   63  142   0.1423504274 ABAB
    7    6   37   91   0.1405655684 ABAB
    6    7   91   37   0.1405655684 ABAB
    7    6   27   91   0.1379806237 ABAB
    6    7   91   27   0.1379806237 ABAB
    7    7  143   27   0.1286486770 ABAB
    7    7   27  143   0.1286486770 ABAB
  norm of converged amps    2.56633931678873     
 Starting iterative solution of the perturbed Lambda equations.
 The DIIS procedure is used to accelerate convergence.
 Convergence criterion is 10**(-7).
 Maximum number of iterations is 100.
 Convergence information after     1 iterations: 
 Largest element of residual vector : -0.67048314E-01.
 Largest element of DIIS residual   : -0.67048314E-01.
 Convergence information after     2 iterations: 
 Largest element of residual vector :  0.69287012E-02.
 Largest element of DIIS residual   :  0.54069502E-02.
 Convergence information after     3 iterations: 
 Largest element of residual vector : -0.34370179E-02.
 Largest element of DIIS residual   : -0.29424445E-02.
 Convergence information after     4 iterations: 
 Largest element of residual vector : -0.20978140E-02.
 Largest element of DIIS residual   : -0.16318828E-02.
 Convergence information after     5 iterations: 
 Largest element of residual vector : -0.11763876E-02.
 Largest element of DIIS residual   : -0.52774175E-03.
 Convergence information after     6 iterations: 
 Largest element of residual vector : -0.37113243E-03.
 Largest element of DIIS residual   :  0.96947758E-04.
 Convergence information after     7 iterations: 
 Largest element of residual vector : -0.66374001E-04.
 Largest element of DIIS residual   : -0.39366140E-04.
 Convergence information after     8 iterations: 
 Largest element of residual vector : -0.15415160E-04.
 Largest element of DIIS residual   :  0.13274196E-04.
 Convergence information after     9 iterations: 
 Largest element of residual vector :  0.57761533E-05.
 Largest element of DIIS residual   :  0.36892661E-05.
 Convergence information after    10 iterations: 
 Largest element of residual vector :  0.27628914E-05.
 Largest element of DIIS residual   :  0.17824936E-05.
 Convergence information after    11 iterations: 
 Largest element of residual vector :  0.96567010E-06.
 Largest element of DIIS residual   :  0.49969382E-06.
 Convergence information after    12 iterations: 
 Largest element of residual vector :  0.42300209E-06.
 Largest element of DIIS residual   :  0.28793634E-06.
 Convergence information after    13 iterations: 
 Largest element of residual vector :  0.20803280E-06.
 Largest element of DIIS residual   :  0.17686437E-06.
 Convergence information after    14 iterations: 
 Largest element of residual vector :  0.12848285E-06.
 Largest element of DIIS residual   :  0.76196700E-07.
 Perturbed Lambda equations converged in    14 iterations.
  Dominant contributions to perturbed wavefunction:
    7    7  142   37   0.1992015107 ABAB
    7    7   37  142   0.1992015107 ABAB
    7    7  142   27   0.1954517158 ABAB
    7    7   27  142   0.1954517158 ABAB
    7    7  142   55   0.1512776194 ABAB
    7    7   55  142   0.1512776194 ABAB
    7    7  141   37   0.1496495904 ABAB
    7    7   37  141   0.1496495904 ABAB
    7    7  141   27   0.1457636683 ABAB
    7    7   27  141   0.1457636683 ABAB
    7    7  141   55   0.1370862360 ABAB
    7    7   55  141   0.1370862360 ABAB
    7    7  142   63   0.1359070581 ABAB
    7    7   63  142   0.1359070581 ABAB
    7    6   37   91   0.1330402126 ABAB
    6    7   91   37   0.1330402126 ABAB
    7    6   27   91   0.1299087173 ABAB
    6    7   91   27   0.1299087173 ABAB
    7    7  143   27   0.1233193157 ABAB
    7    7   27  143   0.1233193157 ABAB
        The DBOC first-order density matrix is being calculated 
             (Symmetry block 3, perturbation   2)
 term   7.76653843226605     
 final tnorm  0.892590426397676     
  norm contr. I: |<0|L dT/dx|0>|^2   0.000000000000000E+000
  norm contr. II: <0|[nabla(1+L)e-T][nabla e^T]|0>   7.76653843226605     
  total norm contribution   7.76653843226605     
 oo  1.126721932581248E-002
 vv  -51.8301118079812     
 vo  2.987103441970102E-002
  Correlated perturbed 1-el contribution to DBOC  -51.7889735542357       cm**-1
  SUM_I |dc_I/dx|^2 contribution to DBOC   25.9821680514164       cm**-1
 
 
  The total diagonal Born-Oppenheimer correction (DBOC) is:      0.0038739722 a.u.
  The total diagonal Born-Oppenheimer correction (DBOC) is:        850.238621 cm-1
 
 Total CC energy including DBOC  -113.278753646861     
 First-order density matrix is being calculated  (Symmetry block 3, perturbation   2)
 Calculation of the contributions of <pq||rs> to dI(i,j)/dx required   1.7 seconds.
 Calculation of the contributions of <pq||rs> to dI(a,b)/dx required  15.9 seconds.
 Calculation of the contributions of <pq||rs> to dI(i,a)/dx required   9.3 seconds.
 First-order Z-vector equations are solved for 1 perturbation.
 Convergence reached after  18 iterations.
        U*G(pq,rs) contribution is being calculated
             (Symmetry block 3, perturbation   2)

 CCSD contribution to force constants 

        0.0000000000        0.0000000000        0.0000000000
        0.0000000000        0.0000000000        0.0000000000
        0.0000000000        0.0000000000        0.0000000000
        0.0000000000        0.0000000000        0.0000000000
        0.0000000000        0.0000000000        0.0000000000
        0.0000000000        0.0000000000        0.0000000000
        0.0000000000        0.0000000000        0.0000000000
        0.0000000000        0.0000000000        0.0000000000
        0.0000000000        0.0000000000        0.0000000000
        0.0000000000        0.0000000000        0.0000000000
        0.0000000000        0.0000000000        0.0000000000
        0.0000000000       -4.3002491161        4.3002491161

 CCSD contribution to dipole derivatives 

        0.0000000000        0.0000000000        0.0000000000
        0.0000000000        0.0000000000        0.0000000000
        0.0000000000        0.0000000000        0.0000000000
        0.0000000000        0.0000000000       -0.0425785000
        0.0000000000        0.0000000000        0.0000000000
        0.0000000000        0.0000000000        0.0000000000
 @CHECKOUT-I, Total execution time (CPU/WALL):     1103.06/     418.01 seconds.
--executable xsdcc finished with status     0 in      418.21 seconds (walltime).
 --invoking executable--
/nfs/workspaces/public/cfour_mpi/bin/xanti
 @GETMEM-I,  Allocated    3814 MB of main memory.
 CCSD MO derivative gammas will be sorted to Mulliken order.
 @CHECKOUT-I, Total execution time (CPU/WALL):       11.64/      26.04 seconds.
--executable xanti finished with status     0 in       26.18 seconds (walltime).
 --invoking executable--
/nfs/workspaces/public/cfour_mpi/bin/xbcktrn
 @GETMEM-I,  Allocated    3814 MB of main memory.
 CCSD MO derivative gammas will be transformed to the AO basis.
 @CHECKOUT-I, Total execution time (CPU/WALL):       22.94/       4.50 seconds.
--executable xbcktrn finished with status     0 in        4.56 seconds (walltime).
 --invoking executable--
/nfs/workspaces/public/cfour_mpi/bin/xvdint
 @GETMEM-I,  Allocated    3814 MB of main memory.
 One- and two-electron integral derivatives are calculated
 for RHF-CC/MBPT hessians and dipole derivatives.
 Spherical gaussians are used.
  magnet F F
                    8722  records have been written to the Sort file.
  Total length of Sort file :             178609116  words.
 Evaluation of 2el integral derivatives

                      Two-electron integral gradient
                      ------------------------------

                         C #1 z     0.0000000000
                         O #2 z     0.0000000000


 C #1       0.0000000000           -0.8395319627            0.0000000000
 O #2       0.0000000000            0.8395319627            0.0000000000


 Evaluation of 2e integral derivatives required  353.46 seconds.
  contribution to Hessian
        0.0000000000        0.0000000000        0.0000000000
        0.0000000000       -0.8395319627        0.8395319627
 @CHECKOUT-I, Total execution time (CPU/WALL):      353.45/      72.46 seconds.
--executable xvdint finished with status     0 in       72.64 seconds (walltime).
 --invoking executable--
/nfs/workspaces/public/cfour_mpi/bin/xanti
 @GETMEM-I,  Allocated    3814 MB of main memory.
 CCSD MO gammas will be sorted to Mulliken order.
 @CHECKOUT-I, Total execution time (CPU/WALL):       16.74/      54.47 seconds.
--executable xanti finished with status     0 in       54.64 seconds (walltime).
 --invoking executable--
/nfs/workspaces/public/cfour_mpi/bin/xbcktrn
 @GETMEM-I,  Allocated    3814 MB of main memory.
 CCSD MO gammas will be transformed to the AO basis.
 @CHECKOUT-I, Total execution time (CPU/WALL):       31.68/       4.77 seconds.
--executable xbcktrn finished with status     0 in        4.84 seconds (walltime).
 --invoking executable--
/nfs/workspaces/public/cfour_mpi/bin/xvdint
 @GETMEM-I,  Allocated    3814 MB of main memory.
 One- and two-electron integral derivatives are calculated
 for RHF-CC/MBPT hessians and dipole derivatives.
 Spherical gaussians are used.
  magnet F F

                     Kinetic energy integral gradient
                     --------------------------------

                         C #1 z    -1.6365677562
                         O #2 z     1.6365677562


 C #1       0.0000000000            0.0000000000           -1.6365677562
 O #2       0.0000000000            0.0000000000            1.6365677562



                   Nuclear attraction integral gradient
                   ------------------------------------

                         C #1 z    24.8200187179
                         O #2 z   -24.8200187179


 C #1       0.0000000000            0.0000000000           24.8200187179
 O #2       0.0000000000            0.0000000000          -24.8200187179



                      Reorthonormalization gradient
                      -----------------------------

                         C #1 z     0.0000000000
                         O #2 z     0.0000000000


 C #1       0.0000000000            0.0000000000            0.0000000000
 O #2       0.0000000000            0.0000000000            0.0000000000



                     Kinetic energy integral Hessian
                     -------------------------------


           Symmetry 1

           C #1 z      O #2 z

 C #1 z    1.052772
 O #2 z   -1.052772    1.052772


           Symmetry 2

           C #1 x      O #2 x

 C #1 x   -2.335563
 O #2 x    2.335563   -2.335563


           Symmetry 3

           C #1 y      O #2 y

 C #1 y   -2.335563
 O #2 y    2.335563   -2.335563




           C #1 x      C #1 y      C #1 z      O #2 x      O #2 y      O #2 z

 C #1 x   -2.335563
 C #1 y    0.000000   -2.335563
 C #1 z    0.000000    0.000000    1.052772

 O #2 x    2.335563    0.000000    0.000000   -2.335563
 O #2 y    0.000000    2.335563    0.000000    0.000000   -2.335563
 O #2 z    0.000000    0.000000   -1.052772    0.000000    0.000000    1.052772




                   Nuclear attraction integral Hessian
                   -----------------------------------


           Symmetry 1

           C #1 z      O #2 z

 C #1 z  -13.413929
 O #2 z   13.413929  -13.413929


           Symmetry 2

           C #1 x      O #2 x

 C #1 x   23.611744
 O #2 x  -23.611744   23.611744


           Symmetry 3

           C #1 y      O #2 y

 C #1 y   23.611744
 O #2 y  -23.611744   23.611744




           C #1 x      C #1 y      C #1 z      O #2 x      O #2 y      O #2 z

 C #1 x   23.611744
 C #1 y    0.000000   23.611744
 C #1 z    0.000000    0.000000  -13.413929

 O #2 x  -23.611744    0.000000    0.000000   23.611744
 O #2 y    0.000000  -23.611744    0.000000    0.000000   23.611744
 O #2 z    0.000000    0.000000   13.413929    0.000000    0.000000  -13.413929




                Highest order reorthonormalization Hessian
                ------------------------------------------


           Symmetry 1

           C #1 z      O #2 z

 C #1 z    0.000000
 O #2 z    0.000000    0.000000


           Symmetry 2

           C #1 x      O #2 x

 C #1 x    0.000000
 O #2 x    0.000000    0.000000


           Symmetry 3

           C #1 y      O #2 y

 C #1 y    0.000000
 O #2 y    0.000000    0.000000




           C #1 x      C #1 y      C #1 z      O #2 x      O #2 y      O #2 z




                Electronic contributions to dipole moment
                -----------------------------------------

                               au             Debye

                    z     -0.92760111     -2.35772725

  Conversion factor used: 1 a.u. =   2.54174691 Debye 



   Electronic contributions to static part of dipole moment derivatives
   --------------------------------------------------------------------


                     Total dipole moment derivatives
                     -------------------------------


           Symmetry 1
                              Ez

               C #1 z    -5.73782305
               O #2 z    -8.26217695

           Symmetry 2
                              Ex

               C #1 x    -5.82568399
               O #2 x    -8.17431601

           Symmetry 3
                              Ey

               C #1 y    -5.82568399
               O #2 y    -8.17431601



                       Ex          Ey          Ez

      C #1    x   -5.825684    0.000000    0.000000
      C #1    y    0.000000   -5.825684    0.000000
      C #1    z    0.000000    0.000000   -5.737823

      O #2    x   -8.174316    0.000000    0.000000
      O #2    y    0.000000   -8.174316    0.000000
      O #2    z    0.000000    0.000000   -8.262177

 Evaluation of 1e integral derivatives required    1.85 seconds.
                    8815  records have been written to the Sort file.
  Total length of Sort file :             180513570  words.
 Evaluation of 2el integral derivatives

                      Two-electron integral gradient
                      ------------------------------

                         C #1 z   -11.4798996989
                         O #2 z    11.4798996989


 C #1       0.0000000000            0.0000000000          -11.4798996989
 O #2       0.0000000000            0.0000000000           11.4798996989


 Evaluation of 2e integral derivatives required  732.08 seconds.

                            Molecular gradient
                            ------------------

                         C #1 z     0.3110729771
                         O #2 z    -0.3110729771


 C #1       0.0000000000            0.0000000000            0.3110729771
 O #2       0.0000000000            0.0000000000           -0.3110729771


  Molecular gradient norm 0.440E+00

                            Molecular hessian
                            -----------------


           Symmetry 1

           C #1 z      O #2 z

 C #1 z   73.846596
 O #2 z  -73.846596   73.846596


           Symmetry 2

           C #1 x      O #2 x

 C #1 x    5.093197
 O #2 x   -5.093197    5.093197


           Symmetry 3

           C #1 y      O #2 y

 C #1 y    5.093197
 O #2 y   -5.093197    5.093197




           C #1 x      C #1 y      C #1 z      O #2 x      O #2 y      O #2 z

 C #1 x    5.093197
 C #1 y    0.000000    5.093197
 C #1 z    0.000000    0.000000   73.846596

 O #2 x   -5.093197    0.000000    0.000000    5.093197
 O #2 y    0.000000   -5.093197    0.000000    0.000000    5.093197
 O #2 z    0.000000    0.000000  -73.846596    0.000000    0.000000   73.846596




                           Total dipole moment
                           -------------------

                               au             Debye

                    z     -0.10686926     -0.27163462

  Conversion factor used: 1 a.u. =   2.54174691 Debye 



                     Total dipole moment derivatives
                     -------------------------------


           Symmetry 1
                              Ez

               C #1 z     0.70452233
               O #2 z    -0.70452233

           Symmetry 2
                              Ex

               C #1 x    -0.05303003
               O #2 x     0.05303003

           Symmetry 3
                              Ey

               C #1 y    -0.05303003
               O #2 y     0.05303003



                       Ex          Ey          Ez

      C #1    x   -0.053030    0.000000    0.000000
      C #1    y    0.000000   -0.053030    0.000000
      C #1    z    0.000000    0.000000    0.704522

      O #2    x    0.053030    0.000000    0.000000
      O #2    y    0.000000    0.053030    0.000000
      O #2    z    0.000000    0.000000   -0.704522

 @CHECKOUT-I, Total execution time (CPU/WALL):      733.92/     135.41 seconds.
--executable xvdint finished with status     0 in      135.57 seconds (walltime).
 --invoking executable--
/nfs/workspaces/public/cfour_mpi/bin/xjoda
  @GTFLGS-I, Hessian will be transformed to curvilinear coordinates.
  @GTFLGS-I, Hessian will be transformed to curvilinear coordinates.
  igrd and ihes are                      0                     1
  gradient from JOBARC 
   0.000000000000000   0.000000000000000   0.311072977141979
   0.000000000000000   0.000000000000000  -0.311072977141979
 
  @PROJFCM-I, Projecting force constant matrix onto totally symmetric subspace.
  Largest difference between matrix elements of symmetrized
  and unsymmetrized FCM :     0.5397460257E-11.
  read isotopes from ZMAT file 
 
  Summary of diagonal Born-Oppenheimer correction at the correlated level
  The total diagonal Born-Oppenheimer correction (DBOC) is:      0.0038739722 a.u.
  The total diagonal Born-Oppenheimer correction (DBOC) is:        850.238621 cm-1
  The total diagonal Born-Oppenheimer correction (DBOC) is:            10.171 kJ/mole
  hellooooooo 
  readis is  F
 
 @CHECKOUT-I, Total execution time (CPU/WALL):        0.03/       0.11 seconds.
--executable xjoda finished with status     0 in        0.16 seconds (walltime).
  The final electronic energy is      -113.278753646861446 a.u. 
  This computation required                         3781.69 seconds (walltime).
