 --invoking executable--
/nfs/workspaces/public/cfour_mpi/bin/xjoda


   *************************************************************************
         <<<     CCCCCC     CCCCCC   |||     CCCCCC     CCCCCC   >>>
       <<<      CCC        CCC       |||    CCC        CCC         >>>
      <<<      CCC        CCC        |||   CCC        CCC            >>>
    <<<        CCC        CCC        |||   CCC        CCC              >>>
      <<<      CCC        CCC        |||   CCC        CCC            >>>
       <<<      CCC        CCC       |||    CCC        CCC         >>>
         <<<     CCCCCC     CCCCCC   |||     CCCCCC     CCCCCC   >>>
   *************************************************************************

     ****************************************************************
     * CFOUR Coupled-Cluster techniques for Computational Chemistry *
     ****************************************************************
 

   Department of Chemistry                Institut fuer Physikalische Chemie
   University of Florida                  Universitaet Mainz
   Gainesville, FL 32611, USA             D-55099 Mainz, Germany

   Department of Chemistry                Fakultaet fuer Chemie und Biowiss.
   Johns Hopkins University               Karlsruher Institut fuer Technologie
   Baltimore, MD 21218, USA               D-76131 Karlsruhe, Germany

   Department of Chemistry                Department of Physical Chemistry
   Southern Methodist University          Eotvos Lorand University
   Dallas, TX 75275, USA                  H-1053 Budapest, Hungary

 
                       Version 2.1
 
                     vincent.theory.phys.ucl.ac.uk                     
                     Mon  3 Mar 09:34:05 GMT 2025                      
                     integer*8 version is running
 
********************************************************************************
*                          Input from ZMAT file                                *
********************************************************************************
Carbon Monoxide DBOC calculation                                                
C                                                                               
O 1 r                                                                           
                                                                                
r=1.5827586206896551                                                            
                                                                                
                                                                                
*CFOUR(CALC=CCSD,BASIS=AUG-PCVQZ,SCF_CONV=10                                    
CC_CONV=14,DBOC=ON,MEMORY=500000000                                             
ZFIELD=-200)                                                                    
                                                                                
%isotopes                                                                       
12                                                                              
18                                                                              
********************************************************************************
  @GTFLGS-I, Hessian will be transformed to curvilinear coordinates.
    -------------------------------------------------------------------
                    CFOUR Control Parameters 
    -------------------------------------------------------------------
        External           Internal           Value            Units
          Name               Name
    -------------------------------------------------------------------
       ABCDTYPE             IABCDT         STANDARD    [  0]    ***   
       ANHARMONIC           IANHAR         OFF         [  0]    ***   
       ANH_ALGORIT          IANALG         STANDARD    [  0]    ***   
       ANH_DERIVAT          IANDER         SECOND      [  1]    ***   
       ANH_MODE             ANHMOD         VIBRATION   [  0]    ***   
       ANH_STEPSIZ          ICUBST             50000          x 10-6  
       ANH_SYMMETR          IANHSM         ABELIAN     [  0]    ***   
       AO_LADDERS           IAOLAD         SINGLEPASS  [  1]    ***   
       AV_SCF               IAVSCF         OFF         [  0]    ***   
       BASIS                IBASIS         AUG-PCVQZ   [ 52]    ***   
       BOTHVECTORS          BOTHVC         OFF         [  0]    ***   
       BOX_POTENT           IPIAB          OFF         [  0]    ***   
       BREIT                IBREIT         OFF         [  0]    ***   
       BRUCK_CONV           IBRTOL          10D-  4             ***   
       BRUECKNER            IBRKNR         OFF         [  0]    ***   
       BUFFERSIZE           IBUFFS              4096            ***   
       CACHE_RECS           ICHREC             10               ***   
       CALCLEVEL            ICLLVL         CCSD        [ 10]    ***   
       CCORBOPT             ICCORB         OFF         [  0]  x 0.01  
       CC_CONV              ICCCNV          10D- 14             ***   
       CC_EXPORDER          ICCEOR              5               ***   
       CC_EXTRAPOL          ICCEXT         DIIS        [  1]    ***   
       CC_GUESS             ICCGES         MP2         [  0]    ***   
       CC_MAXCYC            ICCCYC            100              cycles 
       CC_PROGRAM           ICCPRO         VCC         [  0]    ***   
       CHARGE               ICHRGE              0               ***   
       CHOLESKY             ICHOLE         OFF         [  0]    ***   
       CIS_CONV             ICISTL              5               ***   
       COMM_SIZE            IPSIZE            ***               ***   
       CONSTANT             ICONST         OLD         [  1]    ***   
       CONTINUUM            ICONTU         NONE        [  0]    ***   
       CONTRACTION          ICNTYP         GENERAL     [  1]    ***   
       COORDINATES          ICOORD         INTERNAL    [  0]    ***   
       CPHF_CONVER          ICPHFT          10D- 16             ***   
       CPHF_MAXCYC          ICPHFC             64              cycles 
       CUBIC                ICUBIC         OFF         [  0]    ***   
       CURVILINEAR          ICURVY         ON          [  1]    ***   
       DBOC                 IDBOC          ON          [  1]    ***   
       DCT                  IDCT           OFF         [  0]    ***   
       DERIV_LEV            IDRLVL         SECOND      [  2]    ***   
       DEVMEM_SIZE          IDVMEM          50000000           MByte  
       DIAG_MRCC            IEOMST          10D-  0             ***   
       DIFF_TYPE            IDIFTY         RELAXED     [  0]    ***   
       DIRECT               IDIRCT         OFF         [  0]    ***   
       DROPMO               IDRPMO      NONE         
       ECP                  IECP           OFF         [  0]    ***   
       EIGENVECTOR          IVEC                1               ***   
       EL_ANHARM            IELANH         OFF         [  0]    ***   
       EOMFOLLOW            IEOMSR         ENERGY      [  0]    ***   
       EOMIP                IEOMIP         OFF         [  0]    ***   
       EOMLEVEL             HBARFM         SAME        [  0]    ***   
       EOM_MRCC             IMRCCE         NEW         [  1]    ***   
       EOM_NONIT            EOMNON         OFF         [  0]    ***   
       EOM_NSING            IEOMSI          10D-  0             ***   
       EOM_NSTATES          IMRCCD         DAVIDSON    [  0]    ***   
       EOM_NTRIP            IEOMTR          10D-  0             ***   
       EOM_ORDER            IEXORD         ENERGY      [  0]    ***   
       EOM_PROPSTA          IEOMST              0               ***   
       ESTATE_CONV          IEXTOL          10D-  5             ***   
       ESTATE_DIAG          IEXDIG         ITERATIVE   [  0]    ***   
       ESTATE_LOCK          IESLOC         ON          [  1]    ***   
       ESTATE_MAXC          IEXMXC             40               ***   
       ESTATE_PROP          IEXPRP         OFF         [  0]    ***   
       EVAL_HESS            IRECAL              0            # of cyc.
       EXCITATION           IEXCIT              0               ***   
       EXCITE               IEXCIT         NONE        [  0]    ***   
       EXTERN_POT           IEXPOT         OFF         [  0]    ***   
       FCGRADNEW            IFCGNW         OFF         [  0]    ***   
       FC_FIELD             IFINFC              0             x 10-6  
       FD_CALTYPE           IFDCAL         GRADONLY    [  0]    ***   
       FD_PROJECT           IFDPRJ         OFF         [  1]    ***   
       FD_STEPSIZE          IDISFD              0            10-4 bohr
       FD_USEGROUP          IFDGRP         FULL        [  0]    ***   
       FILE_RECSIZ          IFLREC              4096           words  
       FINITE_PERT          IFIPER              0             x 10-6  
       FIXGEOM              IFIXGM         OFF         [  0]    ***   
       FOCK                 IFOCK          AO          [  1]    ***   
       FREQ_ALGORI          IVIALG         STANDARD    [  0]    ***   
       FROZEN_CORE          IFROCO         OFF         [  0]    ***   
       GAMMA_ABCD           IGABCD         STORE       [  0]    ***   
       GAMMA_ABCI           IGABCI         STORE       [  0]    ***   
       GENBAS_1             IGNBS1              0               ***   
       GENBAS_2             IGNBS2              0               ***   
       GENBAS_3             IGNBS3              0               ***   
       GENBAS_4             IGNBS4              0               ***   
       GEO_CONV             ICONTL              5              H/bohr 
       GEO_MAXCYC           IOPTCY             50               ***   
       GEO_MAXSTEP          IMXSTP            300            millibohr
       GEO_METHOD           INR            SINGLE_POINT[  5]    ***   
       GIAO                 IGIAO          OFF         [  1]    ***   
       GIMIC                IGIMIC         OFF         [  0]    ***   
       GRID                 IGRID          OFF         [  0]    ***   
       GRID_ALGO            IGALGO         SERIAL      [  0]    ***   
       GUESS                IGUESS         MOREAD      [  0]    ***   
       HBAR                 IHBAR          OFF         [  0]    ***   
       HESS_TYPE            IHESTP         SCF         [  0]    ***   
       HF2_FILE             IHF2Fl         USE         [  1]    ***   
       HFSTABILITY          ISTABL         OFF         [  0]    ***   
       INCORE               INCORE         OFF         [  0]    ***   
       INPUT_MRCC           IMRCC          ON          [  1]    ***   
       INTEGRALS            INTTYP         VMOL        [  1]    ***   
       JODA_PRINT           IJPRNT              0               ***   
       KEYWORD_OUT          IDMPKW         NO          [  0]    ***   
       LINDEP_TOL           ILINDP              8               ***   
       LINEQ_CONV           IZTACN          10D-  7           cycles  
       LINEQ_EXPOR          ILMAXD              5               ***   
       LINEQ_MAXCY          ILMAXC            100               ***   
       LINEQ_TYPE           ILTYPE         DIIS        [  1]    ***   
       LOCK_ORBOCC          ILOCOC         OFF         [  0]    ***   
       MEMORY_SIZE          IMEMSZ         500000000           words  
       MEM_UNIT             IMEMU          INTEGERWORDS[  0]    ***   
       MRCC                 IMRCCC         OFF         [  0]    ***   
       MULTIPLICTY          IMULTP              1               ***   
       NACOUPLING           IVCOUP         OFF         [  0]    ***   
       NEGEVAL              IDIE           ABORT       [  0]    ***   
       NEWNORM              INEWNO         OFF         [  0]    ***   
       NON-HF               INONHF         OFF         [  0]    ***   
       NTOP_TAMP            ITOPT2             15               ***   
       NUC_MODEL            INUCMO         POINT       [  0]    ***   
       OCCUPATION           IOCCU   ESTIMATED BY SCF 
       OPEN-SHELL           IOPEN          SPIN-ORBITAL[  0]    ***   
       OPTVIB               IOPTVB         OFF         [  0]    ***   
       ORBITALS             IORBTP         STANDARD    [  0]    ***   
       PARALLEL             IPARAL         ON          [  1]    ***   
       PARA_INT             IPINTS         ON          [  1]    ***   
       PARA_PRINT           IPPRIN              0               ***   
       PERT_ORB             IPTORB         STANDARD    [  0]    ***   
       POINTS               IGRDFD              0               ***   
       PRINT                IPRNT               0               ***   
       PROPS                IPROPS         OFF         [  0]    ***   
       PROP_INTEGR          IINTYP         INTERNAL    [  0]    ***   
       PSI                  IPSI           OFF         [  0]    ***   
       QC_ALG               IQCALG         FLM         [  0]    ***   
       QC_LINALG            IQCLIN         TRIDIAG     [  2]    ***   
       QC_MAXCYC            IQCMAX          10D-100           cycles  
       QC_MAXSCFCY          IQCMSC          10D- 15           cycles  
       QC_RTRUST            IQCRTR          10D-  0           x 10-3  
       QC_SKIPSCF           IQCSKI         OFF         [  0]    ***   
       QC_START             IQCSTA          10D-  1             ***   
       QRHFGUESS            IQGUES         OFF         [  0]    ***   
       QUARTIC              IQUART         OFF         [  0]    ***   
       RAMAN_INT            IRAMIN         OFF         [  0]    ***   
       RAMAN_ORB            IRAMRE         UNRELAXED   [  0]    ***   
       RDO                  IRDOFM         ON          [  1]    ***   
       REDUCE_REPR          REDREP         Ir          [  0]    ***   
       REFERENCE            IREFNC         RHF         [  0]    ***   
       RELATIVIST           IRELAT         OFF         [  0]    ***   
       RELAX_DENS           IRDENS         ON          [  1]    ***   
       RESET_FLAGS          IRESET         OFF         [  0]    ***   
       RESTART_CC           ICCRES         OFF         [  0]    ***   
       ROT_EVEC             ROTVEC              0               ***   
       SAVE_INTS            ISVINT         OFF         [  0]    ***   
       SCALE_ON             ISTCRT              0               ***   
       SCF_CONV             ISCFCV          10D- 10             ***   
       SCF_DAMPING          IDAMP               0             x 10-3  
       SCF_EXPORDE          IRPPOR              6               ***   
       SCF_EXPSTAR          IRPPLS              8               ***   
       SCF_EXTRAPO          IRPP           ON          [  1]    ***   
       SCF_MAXCYC           ISCFCY            150              cycles 
       SCF_NOSTOP           ISCFST         OFF         [  0]    ***   
       SCF_PRINT            ISCFPR              0               ***   
       SCF_PROG             ISCFPR         SCF         [  0]    ***   
       SD_FIELD             IFINSD              0             x 10-6  
       SOPERT               IPERSO         OFF         [  0]    ***   
       SPHERICAL            IDFGHI         ON          [  1]    ***   
       SPINORBIT            ISOCAL         OFF         [  0]    ***   
       SPINROTATIO          ISRCON         OFF         [  0]    ***   
       SPIN_FLIP            ISPFLP         OFF         [  0]    ***   
       SPIN_ORBIT           ISPORB         OFF         [  0]    ***   
       SPIN_SCAL            ISCSMP         OFF         [  0]    ***   
       STEEPSCALE           ISTPSC              1000          x 10-3  
       SUBGROUP             ISUBGP         DEFAULT     [  0]    ***   
       SUBGRPAXIS           ISBXYZ         X           [  0]    ***   
       SYMMETRY             ISYM           ON          [  0]    ***   
       SYM_CHECK            ISYMCK         OVERRIDE    [  1]    ***   
       T3_EXTRAPOL          IT3EXT         OFF         [  0]    ***   
       T4_EXTRAPOL          IT4EXP         OFF         [  0]    ***   
       TAMP_SUM             IEVERY              5               ***   
       TESTSUITE            ITESTS         OFF         [  0]    ***   
       THERMOCH             ITHERM         OFF         [  0]    ***   
       TOL_CHOLESK          ITOLCH          10D-  4             ***   
       TRANGRAD             IRESRM         OFF         [  0]    ***   
       TRANS_INV            ITRAIN         IGNORE      [  1]    ***   
       TREAT_PERT           ITREAT         SIMULTANEOUS[  0]    ***   
       TRIP_ALGORI          ITRALG         NORMAL      [  0]    ***   
       UIJ_THRESHO          IUIJTH              1               ***   
       UNITS                IUNITS         ANGSTROM    [  0]    ***   
       UNOS                 IUNOS          OFF         [  0]    ***   
       UPDATE_HESS          IHUPDT         ON          [  1]    ***   
       VIBPHASE             ISETPH         STANDARD    [  0]    ***   
       VIBRATION            IVIB           ANALYTIC    [  1]    ***   
       VIB_ALGORIT          IGEALG         STANDARD    [  0]    ***   
       VNATORB              IVNORB         OFF         [  0]    ***   
       VTRAN                IVTRAN         FULL/PARTIAL[  0]    ***   
       XFIELD               IXEFLD              0             x 10-6  
       XFORM_TOL            IXFTOL          10D- 11             ***   
       YFIELD               IYEFLD              0             x 10-6  
       ZFIELD               IZEFLD            ***             x 10-6  
       ZSCALE_EXP           IZEXPS         OFF         [  0]    ***   
    -------------------------------------------------------------------
   2 entries found in Z-matrix 
   Job Title : Carbon Monoxide DBOC calculation                                                
   There are  1 unique internal coordinates.
   Of these,  0 will be optimized.
   User supplied Z-matrix: 
--------------------------------------------------------------------------------
       SYMBOL    BOND      LENGTH    ANGLE     ANGLE     DIHED     ANGLE
                  TO      (ANGST)    WRT      (DEG)      WRT      (DEG)
--------------------------------------------------------------------------------
        C    
        O          1         r    
                  *Initial values for internal coordinates* 
                      Name             Value
                        r               1.5827586207
--------------------------------------------------------------------------------
  read isotopes from ZMAT file 
   Rotational constants (in cm-1): 
          0.9346366083             0.9346366083
   Rotational constants (in MHz): 
      28019.7045403453         28019.7045403453
********************************************************************************
   The full molecular point group is CXv .
   The largest Abelian subgroup of the full molecular point group is C2v .
   The computational point group is C2v .
********************************************************************************
--------------------------------------------------------------------------------
   Analysis of internal coordinates specified by Z-matrix 
--------------------------------------------------------------------------------
   *The nuclear repulsion energy is   16.048246692810455 a.u.
   *There is   1 degree of freedom within the tot. symm. molecular subspace.
   *Z-matrix requests optimization of   0 coordinates.
   *The optimization is constrained.
   *The following   1 parameters can have non-zero 
    derivatives within the totally symmetric subspace:
             r    [ 1]
   *The following   0 parameters are to be optimized:

   *The following coordinates must be varied in an  unconstrained optimization.
             r    [ 1]
--------------------------------------------------------------------------------


 ----------------------------------------------------------------
         Coordinates used in calculation (QCOMP) 
 ----------------------------------------------------------------
 Z-matrix   Atomic            Coordinates (in bohr)
  Symbol    Number           X              Y              Z
 ----------------------------------------------------------------
     C         6        -0.00000000     0.00000000     1.79455508
     O         8         0.00000000     0.00000000    -1.19642586
 ----------------------------------------------------------------
 
   Interatomic distance matrix (Angstroms) 
 
                 C             O    
                [ 1]        [ 2]
  C    [ 1]     0.00000
  O    [ 2]     1.58276     0.00000
 rotcon2
   Rotational constants (in cm-1): 
          0.9346366083             0.0000000000
   Rotational constants (in MHz): 
      28019.7045403453             0.0000000000
  ECPDATA file not present.   Using default ECPDATA. 
  @GTFLGS-I, Hessian will be transformed to curvilinear coordinates.
  There are  218 basis functions.
 @CHECKOUT-I, Total execution time (CPU/WALL):        0.15/       0.25 seconds.
--executable xjoda finished with status     0 in        0.28 seconds (walltime).
 --invoking executable--
/nfs/workspaces/public/cfour_mpi/bin/xvmol
 SERIAL VERSION OF MOLECULE STARTED
********************************************************************************
                    INPUT FROM MOL FILE
********************************************************************************
INTGRL        1    0    1    0    0    0    0    0    0                         
         *** CFOUR Program System (Release V0.1) ***                            
Carbon Monoxide DBOC calculation                                                
    2    2 X  Y       0.10E-08              0    0                              
   9999.00      3.00                                                            
          6.00000000    1    5    1    1    1    1    1                         
C #1  -0.000000000000000   0.000000000000000   1.794555076839613                
   16    9                                                                      
   33980.0000000000       9.100000000000000E-005 -1.900000000000000E-005        
  0.000000000000000E+000  0.000000000000000E+000  0.000000000000000E+000        
  0.000000000000000E+000  0.000000000000000E+000  0.000000000000000E+000        
  0.000000000000000E+000                                                        
   5089.00000000000       7.040000000000000E-004 -1.510000000000000E-004        
  0.000000000000000E+000  0.000000000000000E+000  0.000000000000000E+000        
  0.000000000000000E+000  0.000000000000000E+000  0.000000000000000E+000        
  0.000000000000000E+000                                                        
   1157.00000000000       3.693000000000000E-003 -7.850000000000000E-004        
  0.000000000000000E+000  0.000000000000000E+000  0.000000000000000E+000        
  0.000000000000000E+000  0.000000000000000E+000  0.000000000000000E+000        
  0.000000000000000E+000                                                        
   326.600000000000       1.536000000000000E-002 -3.324000000000000E-003        
  0.000000000000000E+000  0.000000000000000E+000  0.000000000000000E+000        
  0.000000000000000E+000  0.000000000000000E+000  0.000000000000000E+000        
  0.000000000000000E+000                                                        
   106.100000000000       5.292900000000000E-002 -1.151200000000000E-002        
  0.000000000000000E+000  0.000000000000000E+000  0.000000000000000E+000        
  0.000000000000000E+000  0.000000000000000E+000  0.000000000000000E+000        
  0.000000000000000E+000                                                        
   38.1100000000000       0.147043000000000      -3.416000000000000E-002        
  0.000000000000000E+000  0.000000000000000E+000  0.000000000000000E+000        
  0.000000000000000E+000  0.000000000000000E+000  0.000000000000000E+000        
  0.000000000000000E+000                                                        
   14.7500000000000       0.305631000000000      -7.717300000000001E-002        
  0.000000000000000E+000  0.000000000000000E+000  0.000000000000000E+000        
  0.000000000000000E+000  0.000000000000000E+000  0.000000000000000E+000        
  0.000000000000000E+000                                                        
   6.03500000000000       0.399345000000000      -0.141493000000000             
  0.000000000000000E+000  0.000000000000000E+000  0.000000000000000E+000        
  0.000000000000000E+000  0.000000000000000E+000  0.000000000000000E+000        
  0.000000000000000E+000                                                        
   2.53000000000000       0.217051000000000      -0.118019000000000             
  0.000000000000000E+000  0.000000000000000E+000  0.000000000000000E+000        
  0.000000000000000E+000  0.000000000000000E+000  0.000000000000000E+000        
  0.000000000000000E+000                                                        
  0.735500000000000       1.589400000000000E-002  0.273806000000000             
   1.00000000000000       0.000000000000000E+000  0.000000000000000E+000        
  0.000000000000000E+000  0.000000000000000E+000  0.000000000000000E+000        
  0.000000000000000E+000                                                        
  0.290500000000000      -3.084000000000000E-003  0.586510000000000             
  0.000000000000000E+000   1.00000000000000       0.000000000000000E+000        
  0.000000000000000E+000  0.000000000000000E+000  0.000000000000000E+000        
  0.000000000000000E+000                                                        
  0.111100000000000       9.779999999999999E-004  0.285430000000000             
  0.000000000000000E+000  0.000000000000000E+000   1.00000000000000             
  0.000000000000000E+000  0.000000000000000E+000  0.000000000000000E+000        
  0.000000000000000E+000                                                        
   7.21600000000000       0.000000000000000E+000  0.000000000000000E+000        
  0.000000000000000E+000  0.000000000000000E+000  0.000000000000000E+000        
   1.00000000000000       0.000000000000000E+000  0.000000000000000E+000        
  0.000000000000000E+000                                                        
   19.5700000000000       0.000000000000000E+000  0.000000000000000E+000        
  0.000000000000000E+000  0.000000000000000E+000  0.000000000000000E+000        
  0.000000000000000E+000   1.00000000000000       0.000000000000000E+000        
  0.000000000000000E+000                                                        
   53.0730000000000       0.000000000000000E+000  0.000000000000000E+000        
  0.000000000000000E+000  0.000000000000000E+000  0.000000000000000E+000        
  0.000000000000000E+000  0.000000000000000E+000   1.00000000000000             
  0.000000000000000E+000                                                        
  4.145000000000000E-002  0.000000000000000E+000  0.000000000000000E+000        
  0.000000000000000E+000  0.000000000000000E+000  0.000000000000000E+000        
  0.000000000000000E+000  0.000000000000000E+000  0.000000000000000E+000        
   1.00000000000000                                                             
   10    8                                                                      
   34.5100000000000       5.378000000000000E-003  0.000000000000000E+000        
  0.000000000000000E+000  0.000000000000000E+000  0.000000000000000E+000        
  0.000000000000000E+000  0.000000000000000E+000  0.000000000000000E+000        
   7.91500000000000       3.613200000000000E-002  0.000000000000000E+000        
  0.000000000000000E+000  0.000000000000000E+000  0.000000000000000E+000        
  0.000000000000000E+000  0.000000000000000E+000  0.000000000000000E+000        
   2.36800000000000       0.142493000000000       0.000000000000000E+000        
  0.000000000000000E+000  0.000000000000000E+000  0.000000000000000E+000        
  0.000000000000000E+000  0.000000000000000E+000  0.000000000000000E+000        
  0.813200000000000       0.342150000000000        1.00000000000000             
  0.000000000000000E+000  0.000000000000000E+000  0.000000000000000E+000        
  0.000000000000000E+000  0.000000000000000E+000  0.000000000000000E+000        
  0.289000000000000       0.463864000000000       0.000000000000000E+000        
   1.00000000000000       0.000000000000000E+000  0.000000000000000E+000        
  0.000000000000000E+000  0.000000000000000E+000  0.000000000000000E+000        
  0.100700000000000       0.250028000000000       0.000000000000000E+000        
  0.000000000000000E+000   1.00000000000000       0.000000000000000E+000        
  0.000000000000000E+000  0.000000000000000E+000  0.000000000000000E+000        
   8.18200000000000       0.000000000000000E+000  0.000000000000000E+000        
  0.000000000000000E+000  0.000000000000000E+000   1.00000000000000             
  0.000000000000000E+000  0.000000000000000E+000  0.000000000000000E+000        
   24.1860000000000       0.000000000000000E+000  0.000000000000000E+000        
  0.000000000000000E+000  0.000000000000000E+000  0.000000000000000E+000        
   1.00000000000000       0.000000000000000E+000  0.000000000000000E+000        
   71.4940000000000       0.000000000000000E+000  0.000000000000000E+000        
  0.000000000000000E+000  0.000000000000000E+000  0.000000000000000E+000        
  0.000000000000000E+000   1.00000000000000       0.000000000000000E+000        
  3.218000000000000E-002  0.000000000000000E+000  0.000000000000000E+000        
  0.000000000000000E+000  0.000000000000000E+000  0.000000000000000E+000        
  0.000000000000000E+000  0.000000000000000E+000   1.00000000000000             
    6    6                                                                      
   1.84800000000000        1.00000000000000       0.000000000000000E+000        
  0.000000000000000E+000  0.000000000000000E+000  0.000000000000000E+000        
  0.000000000000000E+000                                                        
  0.649000000000000       0.000000000000000E+000   1.00000000000000             
  0.000000000000000E+000  0.000000000000000E+000  0.000000000000000E+000        
  0.000000000000000E+000                                                        
  0.228000000000000       0.000000000000000E+000  0.000000000000000E+000        
   1.00000000000000       0.000000000000000E+000  0.000000000000000E+000        
  0.000000000000000E+000                                                        
   8.65600000000000       0.000000000000000E+000  0.000000000000000E+000        
  0.000000000000000E+000   1.00000000000000       0.000000000000000E+000        
  0.000000000000000E+000                                                        
   33.2130000000000       0.000000000000000E+000  0.000000000000000E+000        
  0.000000000000000E+000  0.000000000000000E+000   1.00000000000000             
  0.000000000000000E+000                                                        
  7.660000000000000E-002  0.000000000000000E+000  0.000000000000000E+000        
  0.000000000000000E+000  0.000000000000000E+000  0.000000000000000E+000        
   1.00000000000000                                                             
    4    4                                                                      
   1.41900000000000        1.00000000000000       0.000000000000000E+000        
  0.000000000000000E+000  0.000000000000000E+000                                
  0.485000000000000       0.000000000000000E+000   1.00000000000000             
  0.000000000000000E+000  0.000000000000000E+000                                
   24.6940000000000       0.000000000000000E+000  0.000000000000000E+000        
   1.00000000000000       0.000000000000000E+000                                
  0.187000000000000       0.000000000000000E+000  0.000000000000000E+000        
  0.000000000000000E+000   1.00000000000000                                     
    2    2                                                                      
   1.01100000000000        1.00000000000000       0.000000000000000E+000        
  0.424000000000000       0.000000000000000E+000   1.00000000000000             
          8.00000000    1    5    1    1    1    1    1                         
O #2   0.000000000000000   0.000000000000000  -1.196425864492987                
   16    9                                                                      
   61420.0000000000       9.000000000000001E-005 -2.000000000000000E-005        
  0.000000000000000E+000  0.000000000000000E+000  0.000000000000000E+000        
  0.000000000000000E+000  0.000000000000000E+000  0.000000000000000E+000        
  0.000000000000000E+000                                                        
   9199.00000000000       6.980000000000001E-004 -1.590000000000000E-004        
  0.000000000000000E+000  0.000000000000000E+000  0.000000000000000E+000        
  0.000000000000000E+000  0.000000000000000E+000  0.000000000000000E+000        
  0.000000000000000E+000                                                        
   2091.00000000000       3.664000000000000E-003 -8.290000000000000E-004        
  0.000000000000000E+000  0.000000000000000E+000  0.000000000000000E+000        
  0.000000000000000E+000  0.000000000000000E+000  0.000000000000000E+000        
  0.000000000000000E+000                                                        
   590.900000000000       1.521800000000000E-002 -3.508000000000000E-003        
  0.000000000000000E+000  0.000000000000000E+000  0.000000000000000E+000        
  0.000000000000000E+000  0.000000000000000E+000  0.000000000000000E+000        
  0.000000000000000E+000                                                        
   192.300000000000       5.242300000000000E-002 -1.215600000000000E-002        
  0.000000000000000E+000  0.000000000000000E+000  0.000000000000000E+000        
  0.000000000000000E+000  0.000000000000000E+000  0.000000000000000E+000        
  0.000000000000000E+000                                                        
   69.3200000000000       0.145921000000000      -3.626100000000000E-002        
  0.000000000000000E+000  0.000000000000000E+000  0.000000000000000E+000        
  0.000000000000000E+000  0.000000000000000E+000  0.000000000000000E+000        
  0.000000000000000E+000                                                        
   26.9700000000000       0.305258000000000      -8.299200000000000E-002        
  0.000000000000000E+000  0.000000000000000E+000  0.000000000000000E+000        
  0.000000000000000E+000  0.000000000000000E+000  0.000000000000000E+000        
  0.000000000000000E+000                                                        
   11.1000000000000       0.398508000000000      -0.152090000000000             
  0.000000000000000E+000  0.000000000000000E+000  0.000000000000000E+000        
  0.000000000000000E+000  0.000000000000000E+000  0.000000000000000E+000        
  0.000000000000000E+000                                                        
   4.68200000000000       0.216980000000000      -0.115331000000000             
  0.000000000000000E+000  0.000000000000000E+000  0.000000000000000E+000        
  0.000000000000000E+000  0.000000000000000E+000  0.000000000000000E+000        
  0.000000000000000E+000                                                        
   1.42800000000000       1.759400000000000E-002  0.288979000000000             
   1.00000000000000       0.000000000000000E+000  0.000000000000000E+000        
  0.000000000000000E+000  0.000000000000000E+000  0.000000000000000E+000        
  0.000000000000000E+000                                                        
  0.554700000000000      -2.502000000000000E-003  0.586128000000000             
  0.000000000000000E+000   1.00000000000000       0.000000000000000E+000        
  0.000000000000000E+000  0.000000000000000E+000  0.000000000000000E+000        
  0.000000000000000E+000                                                        
  0.206700000000000       9.540000000000000E-004  0.277624000000000             
  0.000000000000000E+000  0.000000000000000E+000   1.00000000000000             
  0.000000000000000E+000  0.000000000000000E+000  0.000000000000000E+000        
  0.000000000000000E+000                                                        
   12.9740000000000       0.000000000000000E+000  0.000000000000000E+000        
  0.000000000000000E+000  0.000000000000000E+000  0.000000000000000E+000        
   1.00000000000000       0.000000000000000E+000  0.000000000000000E+000        
  0.000000000000000E+000                                                        
   34.9000000000000       0.000000000000000E+000  0.000000000000000E+000        
  0.000000000000000E+000  0.000000000000000E+000  0.000000000000000E+000        
  0.000000000000000E+000   1.00000000000000       0.000000000000000E+000        
  0.000000000000000E+000                                                        
   93.8810000000000       0.000000000000000E+000  0.000000000000000E+000        
  0.000000000000000E+000  0.000000000000000E+000  0.000000000000000E+000        
  0.000000000000000E+000  0.000000000000000E+000   1.00000000000000             
  0.000000000000000E+000                                                        
  6.959000000000000E-002  0.000000000000000E+000  0.000000000000000E+000        
  0.000000000000000E+000  0.000000000000000E+000  0.000000000000000E+000        
  0.000000000000000E+000  0.000000000000000E+000  0.000000000000000E+000        
   1.00000000000000                                                             
   10    8                                                                      
   63.4200000000000       6.044000000000000E-003  0.000000000000000E+000        
  0.000000000000000E+000  0.000000000000000E+000  0.000000000000000E+000        
  0.000000000000000E+000  0.000000000000000E+000  0.000000000000000E+000        
   14.6600000000000       4.179900000000000E-002  0.000000000000000E+000        
  0.000000000000000E+000  0.000000000000000E+000  0.000000000000000E+000        
  0.000000000000000E+000  0.000000000000000E+000  0.000000000000000E+000        
   4.45900000000000       0.161143000000000       0.000000000000000E+000        
  0.000000000000000E+000  0.000000000000000E+000  0.000000000000000E+000        
  0.000000000000000E+000  0.000000000000000E+000  0.000000000000000E+000        
   1.53100000000000       0.356731000000000        1.00000000000000             
  0.000000000000000E+000  0.000000000000000E+000  0.000000000000000E+000        
  0.000000000000000E+000  0.000000000000000E+000  0.000000000000000E+000        
  0.530200000000000       0.448309000000000       0.000000000000000E+000        
   1.00000000000000       0.000000000000000E+000  0.000000000000000E+000        
  0.000000000000000E+000  0.000000000000000E+000  0.000000000000000E+000        
  0.175000000000000       0.244940000000000       0.000000000000000E+000        
  0.000000000000000E+000   1.00000000000000       0.000000000000000E+000        
  0.000000000000000E+000  0.000000000000000E+000  0.000000000000000E+000        
   14.4750000000000       0.000000000000000E+000  0.000000000000000E+000        
  0.000000000000000E+000  0.000000000000000E+000   1.00000000000000             
  0.000000000000000E+000  0.000000000000000E+000  0.000000000000000E+000        
   42.7300000000000       0.000000000000000E+000  0.000000000000000E+000        
  0.000000000000000E+000  0.000000000000000E+000  0.000000000000000E+000        
   1.00000000000000       0.000000000000000E+000  0.000000000000000E+000        
   126.140000000000       0.000000000000000E+000  0.000000000000000E+000        
  0.000000000000000E+000  0.000000000000000E+000  0.000000000000000E+000        
  0.000000000000000E+000   1.00000000000000       0.000000000000000E+000        
  5.348000000000000E-002  0.000000000000000E+000  0.000000000000000E+000        
  0.000000000000000E+000  0.000000000000000E+000  0.000000000000000E+000        
  0.000000000000000E+000  0.000000000000000E+000   1.00000000000000             
    6    6                                                                      
   3.77500000000000        1.00000000000000       0.000000000000000E+000        
  0.000000000000000E+000  0.000000000000000E+000  0.000000000000000E+000        
  0.000000000000000E+000                                                        
   1.30000000000000       0.000000000000000E+000   1.00000000000000             
  0.000000000000000E+000  0.000000000000000E+000  0.000000000000000E+000        
  0.000000000000000E+000                                                        
  0.444000000000000       0.000000000000000E+000  0.000000000000000E+000        
   1.00000000000000       0.000000000000000E+000  0.000000000000000E+000        
  0.000000000000000E+000                                                        
   14.9270000000000       0.000000000000000E+000  0.000000000000000E+000        
  0.000000000000000E+000   1.00000000000000       0.000000000000000E+000        
  0.000000000000000E+000                                                        
   57.5440000000000       0.000000000000000E+000  0.000000000000000E+000        
  0.000000000000000E+000  0.000000000000000E+000   1.00000000000000             
  0.000000000000000E+000                                                        
  0.154000000000000       0.000000000000000E+000  0.000000000000000E+000        
  0.000000000000000E+000  0.000000000000000E+000  0.000000000000000E+000        
   1.00000000000000                                                             
    4    4                                                                      
   2.66600000000000        1.00000000000000       0.000000000000000E+000        
  0.000000000000000E+000  0.000000000000000E+000                                
  0.859000000000000       0.000000000000000E+000   1.00000000000000             
  0.000000000000000E+000  0.000000000000000E+000                                
   26.4830000000000       0.000000000000000E+000  0.000000000000000E+000        
   1.00000000000000       0.000000000000000E+000                                
  0.324000000000000       0.000000000000000E+000  0.000000000000000E+000        
  0.000000000000000E+000   1.00000000000000                                     
    2    2                                                                      
   1.84600000000000        1.00000000000000       0.000000000000000E+000        
  0.714000000000000       0.000000000000000E+000   1.00000000000000             
FINISH                                                                          
 
********************************************************************************
 ONE- AND TWO-ELECTRON INTEGRALS OVER SYMMETRY-ADAPTED AOS ARE CALCULATED.

  SPHERICAL HARMONICS ARE USED.
  
  INTEGRALS LESS THAN  0.10E-13 ARE NEGLECTED.

  NUCLEAR REPULSION ENERGY :   16.0482466928 A.U.
  @MOLECU-I, ONE ELECTRON INTEGRALS (CPU/WALL):        0.06/       0.07 SECONDS.
  @TWOEL-I,    4439008 INTEGRALS OF SYMMETRY TYPE  I I I I
  @TWOEL-I,   19151757 INTEGRALS OF SYMMETRY TYPE  I J I J
  @TWOEL-I,   10083472 INTEGRALS OF SYMMETRY TYPE  I I J J
  @TWOEL-I,   14156143 INTEGRALS OF SYMMETRY TYPE  I J K L
  @TWOEL-I, TOTAL NUMBER OF 2-E INTEGRALS   47830380.
  @MOLECU-I, TWO ELECTRON INTEGRALS (CPU/WALL):      242.42/      32.69 SECONDS.
 @CHECKOUT-I, Total execution time (CPU/WALL):      242.51/      32.78 seconds.

Running with 14 threads/proc

--executable xvmol finished with status     0 in       32.82 seconds (walltime).
 --invoking executable--
/nfs/workspaces/public/cfour_mpi/bin/xvmol2ja
 @GETMEM-I,  Allocated    3814 MB of main memory.
 @CHECKOUT-I, Total execution time (CPU/WALL):        0.15/       0.07 seconds.
--executable xvmol2ja finished with status     0 in        0.12 seconds (walltime).
 --invoking executable--
/nfs/workspaces/public/cfour_mpi/bin/xvprop
 @GETMEM-I,  Allocated    3814 MB of main memory.
   Property integrals will be calculated.
    --------------------------------------------------------------
                                   Property evaluated at 
    Property type                X             Y             Z
    --------------------------------------------------------------
    Dipole moment               ----          ----          ----  
    Quadrupole moment           ----          ----          ----  
    Octopole moment             ----          ----          ----  
    Relativisitic corr.         ----          ----          ----  
    Second moment            0.0000000     0.0000000     0.0000000
    Electron density         0.0000000     0.0000000     1.7945551
    Electron density         0.0000000     0.0000000    -1.1964259
    Field gradient           0.0000000     0.0000000     1.7945551
    Field gradient           0.0000000     0.0000000    -1.1964259
    Potential                0.0000000     0.0000000     1.7945551
    Potential                0.0000000     0.0000000    -1.1964259
    --------------------------------------------------------------
 @CHECKOUT-I, Total execution time (CPU/WALL):        1.35/       1.38 seconds.
--executable xvprop finished with status     0 in        1.40 seconds (walltime).
 --invoking executable--
/nfs/workspaces/public/cfour_mpi/bin/xvscf
  There are  218 functions in the AO basis.

  There are 4 irreducible representations.

       Irrep        # of functions
         1                 86
         2                 52
         3                 52
         4                 28


  Parameters for SCF calculation: 
        SCF reference function:  RHF  
  Maximum number of iterations:  150
     Full symmetry point group: CXv 
     Computational point group: C2v 
        Initial density matrix: MOREAD                 
     SCF convergence tolerance: 10**(-10)
  DIIS convergence acceleration:  ON
          Latest start for DIIS:   8
                     DIIS order:   6

  Memory information:    2523578 words required.
  Fock matrices are constructed from AO integral file.
 @GETMEM-I,  Allocated      19 MB of main memory.
  Initialization and symmetry analysis required      0.001 seconds.

  Adding electric field perturbation to one-electron Hamiltonian.
  Field direction     : Z
  Field strength      : -0.0002000 a.u.

  @INITGES-I, Occupancies from core Hamiltonian:

          Alpha population by irrep:   5    1    1    0
           Beta population by irrep:   5    1    1    0


 total no. of electrons in initial guess :  0.000000000000000E+000
  --------------------------------------------------------------------
  Iteration         Total Energy            Largest Density Difference
  --------------------------------------------------------------------
       0            16.048485877518871              0.0000000000D+00
   current occupation vector 
     5  1  1  0
     5  1  1  0
       1           -93.567377959793973              0.1754659633D+02
   current occupation vector 
     5  1  1  0
     5  1  1  0
       2           -98.047542003116220              0.1754657916D+02
   current occupation vector 
     5  1  1  0
     5  1  1  0
       3          -100.524828773803932              0.6606116738D+01
   current occupation vector 
     5  1  1  0
     5  1  1  0
       4           -95.473569231812874              0.6601042655D+01
   current occupation vector 
     5  1  1  0
     5  1  1  0
       5          -100.344991343221935              0.6941979431D+01
   current occupation vector 
     5  1  1  0
     5  1  1  0
       6           -95.214282147102224              0.6942516856D+01
   current occupation vector 
     5  1  1  0
     5  1  1  0
       7          -100.332757506925489              0.6961569816D+01
   current occupation vector 
     5  1  1  0
     5  1  1  0
       8           -95.205767364675296              0.6961611286D+01
   current occupation vector 
     5  1  1  0
     5  1  1  0
       9          -107.474541611145952              0.5797296632D+01
   current occupation vector 
     5  1  1  0
     5  1  1  0
      10          -110.437766176876906              0.1308129212D+01
   current occupation vector 
     5  1  1  0
     5  1  1  0
      11          -112.388531176105104              0.1101003745D+01
   current occupation vector 
     5  1  1  0
     5  1  1  0
      12          -112.527312854234694              0.4821686807D+00
   current occupation vector 
     5  1  1  0
     5  1  1  0
      13          -112.539815922992616              0.1263287702D+00
   current occupation vector 
     5  1  1  0
     5  1  1  0
      14          -112.543756857513202              0.7526672109D-01
   current occupation vector 
     5  1  1  0
     5  1  1  0
      15          -112.544034796240098              0.2059576281D-01
   current occupation vector 
     5  1  1  0
     5  1  1  0
      16          -112.544252508696061              0.2684210620D-01
   current occupation vector 
     5  1  1  0
     5  1  1  0
      17          -112.544331330992904              0.1879104507D-01
   current occupation vector 
     5  1  1  0
     5  1  1  0
      18          -112.544346680585775              0.1079948582D-01
   current occupation vector 
     5  1  1  0
     5  1  1  0
      19          -112.544346813344717              0.9430087839D-03
   current occupation vector 
     5  1  1  0
     5  1  1  0
      20          -112.544346814289682              0.4432369460D-04
   current occupation vector 
     5  1  1  0
     5  1  1  0
      21          -112.544346814361560              0.1129679066D-04
   current occupation vector 
     5  1  1  0
     5  1  1  0
      22          -112.544346814363266              0.1782777256D-05
   current occupation vector 
     5  1  1  0
     5  1  1  0
      23          -112.544346814362953              0.4500637907D-06
   current occupation vector 
     5  1  1  0
     5  1  1  0
      24          -112.544346814362896              0.1832436518D-06
   current occupation vector 
     5  1  1  0
     5  1  1  0
      25          -112.544346814360424              0.5041348250D-07
   current occupation vector 
     5  1  1  0
     5  1  1  0
      26          -112.544346814362896              0.1048315523D-07
   current occupation vector 
     5  1  1  0
     5  1  1  0
      27          -112.544346814362669              0.4484373095D-08
   current occupation vector 
     5  1  1  0
     5  1  1  0
      28          -112.544346814362783              0.7623697229D-09
   current occupation vector 
     5  1  1  0
     5  1  1  0

  SCF has converged.

 Density matrix saved to file den.dat
 total electron number:   14.0000000000002     
     E(SCF)=      -112.544346814362584              0.8922040884D-10

  Eigenvector printing suppressed.

 @PUTMOS-I, Writing converged MOs to NEWMOS. 
 @PUTMOS-I, Symmetry   1 Full Blocks 21 Partial Blocksize   2
 @PUTMOS-I, Symmetry   2 Full Blocks 13 Partial Blocksize   0
 @PUTMOS-I, Symmetry   3 Full Blocks 13 Partial Blocksize   0
 @PUTMOS-I, Symmetry   4 Full Blocks  7 Partial Blocksize   0
 @PUTFOCK-I, Writing converged Fock matrix to NEWFOCK. 
 @PUTFOCK-I, Symmetry   1 Full Blocks 21 Partial Blocksize   2
 @PUTFOCK-I, Symmetry   2 Full Blocks 13 Partial Blocksize   0
 @PUTFOCK-I, Symmetry   3 Full Blocks 13 Partial Blocksize   0
 @PUTFOCK-I, Symmetry   4 Full Blocks  7 Partial Blocksize   0


 
  ORBITAL EIGENVALUES (ALPHA)  (1H = 27.2113834 eV)

       MO #        E(hartree)               E(eV)           FULLSYM    COMPSYM
       ----   --------------------   --------------------   -------   ---------
    1     1         -20.6471358688        -561.8371302382     SG+        A1 (1)
    2     2         -11.5189356187        -313.4461734804     SG+        A1 (1)
    3     3          -1.2831782106         -34.9170542603     SG+        A1 (1)
    4     4          -0.8039237423         -21.8758771766     SG+        A1 (1)
    5     5          -0.5343169021         -14.5395020803     SG+        A1 (1)
    6   139          -0.5006748180         -13.6240544323      PI        B2 (3)
    7    87          -0.5006748180         -13.6240544323      PI        B1 (2)
  +++++++++++++++++++++++++++++++++++++++++++++++++++++++++++++++++++++++++++++
    8    88          -0.0039505663          -0.1075003736      PI        B1 (2)
    9   140          -0.0039505663          -0.1075003736      PI        B2 (3)
   10     6           0.0593972732           1.6162819748     SG+        A1 (1)
   11     7           0.0689870186           1.8772322123     SG+        A1 (1)
   12   141           0.0817469973           2.2244488859      PI        B2 (3)
   13    89           0.0817469973           2.2244488859      PI        B1 (2)
   14     8           0.1574026187           4.2831430045     SG+        A1 (1)
   15    90           0.1795193235           4.8849691402      PI        B1 (2)
   16   142           0.1795193235           4.8849691402      PI        B2 (3)
   17     9           0.2012742836           5.4769516998     SG+        A1 (1)
   18    10           0.2219114003           6.0385161953      DE        A1 (1)
   19   191           0.2219114003           6.0385161953      DE        A2 (4)
   20    91           0.2854857863           7.7684631872      PI        B1 (2)
   21   143           0.2854857863           7.7684631872      PI        B2 (3)
   22    11           0.3008838798           8.1874666116     SG+        A1 (1)
   23    12           0.3159970066           8.5987157003     SG+        A1 (1)
   24    92           0.4044726607          11.0062606439      PI        B1 (2)
   25   144           0.4044726607          11.0062606439      PI        B2 (3)
   26    13           0.4220058225          11.4833622319     SG+        A1 (1)
   27    14           0.5135289723          13.9738337535     SG+        A1 (1)
   28    15           0.5499339430          14.9644633685      DE        A1 (1)
   29   192           0.5499339430          14.9644633685      DE        A2 (4)
   30    93           0.6234543449          16.9650552112      PI        B1 (2)
   31   145           0.6234543449          16.9650552112      PI        B2 (3)
   32    16           0.7061682673          19.2158154652     SG+        A1 (1)
   33   146           0.7318552074          19.9147926416      PH        B2 (3)
   34    94           0.7318552074          19.9147926416      PH        B1 (2)
   35   193           0.7391989594          20.1146262926      DE        A2 (4)
   36    17           0.7391989594          20.1146262926      DE        A1 (1)
   37   147           0.7769064252          21.1406986018      PI        B2 (3)
   38    95           0.7769064252          21.1406986018      PI        B1 (2)
   39    18           0.8195833966          22.3019980319     SG+        A1 (1)
   40   194           0.8600139633          23.4021696837      DE        A2 (4)
   41    19           0.8600139633          23.4021696837      DE        A1 (1)
   42    20           0.8835676253          24.0430974112     SG+        A1 (1)
   43   148           0.8853941922          24.0928008237      PI        B2 (3)
   44    96           0.8853941922          24.0928008237      PI        B1 (2)
   45   149           1.0389178757          28.2703926360      PI        B2 (3)
   46    97           1.0389178757          28.2703926360      PI        B1 (2)
   47    21           1.1321193300          30.8065331427     SG+        A1 (1)
   48    22           1.3630557304          37.0906320752     SG+        A1 (1)
   49    98           1.4213048102          38.6756701189      PH        B1 (2)
   50   150           1.4213048102          38.6756701189      PH        B2 (3)
   51   151           1.4922645672          40.6065832715      PI        B2 (3)
   52    99           1.4922645672          40.6065832715      PI        B1 (2)
   53    23           1.5840971118          43.1054738518      DE        A1 (1)
   54   195           1.5840971118          43.1054738518      DE        A2 (4)
   55    24           1.5927767633          43.3416591754     SG+        A1 (1)
   56   100           1.6384952330          44.5857219851      PI        B1 (2)
   57   152           1.6384952330          44.5857219851      PI        B2 (3)
   58   196           1.6792217223          45.6939460987      DE        A2 (4)
   59    25           1.6792217223          45.6939460987      DE        A1 (1)
   60    26           1.9184667438          52.2041341051     SG+        A1 (1)
   61    27           1.9545955852          53.1872498598     SG+        A1 (1)
   62   197           2.0684732511          56.2860186897      PI        A2 (4)
   63    28           2.0684732511          56.2860186897      PI        A1 (1)
   64   153           2.0735748187          56.4248394013      PI        B2 (3)
   65   101           2.0735748187          56.4248394013      PI        B1 (2)
   66    29           2.1268688192          57.8750428802      DE        A1 (1)
   67   198           2.1268688192          57.8750428802      DE        A2 (4)
   68   154           2.2040226883          59.9745063924      PH        B2 (3)
   69   102           2.2040226883          59.9745063924      PH        B1 (2)
   70   155           2.2125716085          60.2071343398      PH        B2 (3)
   71   103           2.2125716085          60.2071343398      PH        B1 (2)
   72    30           2.2221908791          60.4688879992     SG+        A1 (1)
   73   104           2.2249642671          60.5443557234      PI        B1 (2)
   74   156           2.2249642671          60.5443557234      PI        B2 (3)
   75   199           2.2850285913          62.1787890775      DE        A2 (4)
   76    31           2.2850285913          62.1787890775      DE        A1 (1)
   77    32           2.4018998770          65.3590184414     SG+        A1 (1)
   78   157           2.5103815518          68.3109548867      PI        B2 (3)
   79   105           2.5103815518          68.3109548867      PI        B1 (2)
   80   158           2.5943172362          70.5949609743      PI        B2 (3)
   81   106           2.5943172362          70.5949609743      PI        B1 (2)
   82    33           2.6323292805          71.6293212856     SG+        A1 (1)
   83    34           2.6449486783          71.9727125593      DE        A1 (1)
   84   200           2.6449486783          71.9727125593      DE        A2 (4)
   85    35           2.9376644224          79.9379128989     SG+        A1 (1)
   86   159           3.3960761087          92.4119290500      PI        B2 (3)
   87   107           3.3960761087          92.4119290500      PI        B1 (2)
   88    36           3.7084879766         100.9130881669      PI        A1 (1)
   89   201           3.7084879766         100.9130881669      PI        A2 (4)
   90    37           3.8954853184         106.0015445287     SG+        A1 (1)
   91   108           3.9183442503         106.6235676891      PH        B1 (2)
   92   160           3.9183442503         106.6235676891      PH        B2 (3)
   93    38           4.1242383345         112.2262305541     SG+        A1 (1)
   94   109           4.1383069849         112.6090579936      PH        B1 (2)
   95   161           4.1383069849         112.6090579936      PH        B2 (3)
   96   110           4.1566526589         113.1082691624      PI        B1 (2)
   97   162           4.1566526589         113.1082691624      PI        B2 (3)
   98   202           4.1839183102         113.8502052523      DE        A2 (4)
   99    39           4.1839183102         113.8502052523      DE        A1 (1)
  100   203           4.2921909625         116.7964539061      DE        A2 (4)
  101    40           4.2921909625         116.7964539061      DE        A1 (1)
  102    41           4.4070475382         119.9218602248     SG+        A1 (1)
  103   163           4.5375597053         123.4732768405      PI        B2 (3)
  104   111           4.5375597053         123.4732768405      PI        B1 (2)
  105    42           4.6814428857         127.3885372286      DE        A1 (1)
  106   204           4.6814428857         127.3885372286      DE        A2 (4)
  107    43           4.7747859667         129.9285315939     SG+        A1 (1)
  108   112           5.1581956194         140.3616386509      PI        B1 (2)
  109   164           5.1581956194         140.3616386510      PI        B2 (3)
  110    44           5.2254827379         142.1926142320     SG+        A1 (1)
  111   113           5.3439330848         145.4158120351      PI        B1 (2)
  112   165           5.3439330848         145.4158120352      PI        B2 (3)
  113   205           5.8278874167         158.5848789073      PI        A2 (4)
  114    45           5.8278874167         158.5848789073      PI        A1 (1)
  115   166           5.8998815958         160.5439401181      PH        B2 (3)
  116   114           5.8998815958         160.5439401181      PH        B1 (2)
  117    46           6.0410852219         164.3862861246     SG+        A1 (1)
  118   206           6.1018859836         166.0407589618      DE        A2 (4)
  119    47           6.1018859836         166.0407589618      DE        A1 (1)
  120   115           6.1298434333         166.8015198465      PI        B1 (2)
  121   167           6.1298434333         166.8015198465      PI        B2 (3)
  122    48           6.1853696351         168.3124646127     SG+        A1 (1)
  123    49           6.3156776692         171.8583264865      DE        A1 (1)
  124   207           6.3156776692         171.8583264866      DE        A2 (4)
  125   168           6.3545653225         172.9165133322      PH        B2 (3)
  126   116           6.3545653225         172.9165133322      PH        B1 (2)
  127    50           6.4886367990         176.5647836821      DE        A1 (1)
  128   208           6.4886367990         176.5647836821      DE        A2 (4)
  129   117           6.7895415305         184.7528176979      PI        B1 (2)
  130   169           6.7895415305         184.7528176979      PI        B2 (3)
  131    51           7.0951796503         193.0696537573     SG+        A1 (1)
  132   118           7.2575294712         197.4874169787      PI        B1 (2)
  133   170           7.2575294712         197.4874169787      PI        B2 (3)
  134    52           7.8211723715         212.8249200397     SG+        A1 (1)
  135    53           9.5593781252         260.1239032312     SG+        A1 (1)
  136   171           9.7335954403         264.8645973875      PI        B2 (3)
  137   119           9.7335954403         264.8645973875      PI        B1 (2)
  138    54          10.6544234946         289.9216026176      PI        A1 (1)
  139   209          10.6544234946         289.9216026176      PI        A2 (4)
  140    55          10.6834719987         290.7120525991     SG+        A1 (1)
  141   172          10.7371031794         292.1714312195      PH        B2 (3)
  142   120          10.7371031794         292.1714312195      PH        B1 (2)
  143   210          10.9630313835         298.3192502035      DE        A2 (4)
  144    56          10.9630313835         298.3192502035      DE        A1 (1)
  145   121          10.9760077227         298.6723543449      PI        B1 (2)
  146   173          10.9760077227         298.6723543449      PI        B2 (3)
  147    57          11.1610147151         303.7066505445     SG+        A1 (1)
  148   174          11.8915770944         323.5862635458      PH        B2 (3)
  149   122          11.8915770944         323.5862635458      PH        B1 (2)
  150    58          11.9919415043         326.3173179852      DE        A1 (1)
  151   211          11.9919415044         326.3173179855      DE        A2 (4)
  152   123          12.3554136985         336.2078992146      PI        B1 (2)
  153   175          12.3554136985         336.2078992146      PI        B2 (3)
  154    59          12.5910512468         342.6199228854     SG+        A1 (1)
  155    60          12.7282569907         346.3534809871      DE        A1 (1)
  156   212          12.7282569907         346.3534809872      DE        A2 (4)
  157   176          13.1042338870         356.5843324633      PI        B2 (3)
  158   124          13.1042338870         356.5843324633      PI        B1 (2)
  159    61          13.5175760788         367.8319453186     SG+        A1 (1)
  160    62          17.3464203313         472.0200942536     SG+        A1 (1)
  161   125          18.7230000259         509.4787321040      PI        B1 (2)
  162   177          18.7230000259         509.4787321040      PI        B2 (3)
  163    63          19.6790614775         535.4944868157     SG+        A1 (1)
  164    64          26.2592968713         714.5517949795      DE        A1 (1)
  165   213          26.2592968713         714.5517949795      DE        A2 (4)
  166   178          26.5604117893         722.7455484595      PI        B2 (3)
  167   126          26.5604117893         722.7455484595      PI        B1 (2)
  168    65          27.0286006581         735.4856152723     SG+        A1 (1)
  169   179          33.4308552188         909.6998187491      PI        B2 (3)
  170   127          33.4308552188         909.6998187491      PI        B1 (2)
  171    66          34.3174146526         933.8243274086     SG+        A1 (1)
  172    67          35.5888753484         968.4225318814     SG+        A1 (1)
  173    68          47.0732181129        1280.9273859424      DE        A1 (1)
  174   214          47.0732181129        1280.9273859425      DE        A2 (4)
  175   180          47.2616469842        1286.0547962030      PI        B2 (3)
  176   128          47.2616469842        1286.0547962031      PI        B1 (2)
  177    69          47.5004556866        1292.5531113627     SG+        A1 (1)
  178    70          63.7671672862        1735.1928373578     SG+        A1 (1)
  179   129          66.3067520050        1804.2984508167      PI        B1 (2)
  180   181          66.3067520050        1804.2984508167      PI        B2 (3)
  181    71          67.0083771071        1823.3906404717     SG+        A1 (1)
  182   182          98.5102891992        2680.6012482446      PH        B2 (3)
  183   130          98.5102891992        2680.6012482446      PH        B1 (2)
  184   215          98.5239401368        2680.9727091422      DE        A2 (4)
  185    72          98.5239401368        2680.9727091423      DE        A1 (1)
  186   131          98.5370422096        2681.3292346681      PI        B1 (2)
  187   183          98.5370422096        2681.3292346681      PI        B2 (3)
  188    73          98.5474238488        2681.6117334318     SG+        A1 (1)
  189   184         103.3100762510        2811.2100939500      PH        B2 (3)
  190   132         103.3100762510        2811.2100939500      PH        B1 (2)
  191    74         103.3103673657        2811.2180155820      DE        A1 (1)
  192   216         103.3103673658        2811.2180155863      DE        A2 (4)
  193   133         103.3374403206        2811.9547081375      PI        B1 (2)
  194   185         103.3374403206        2811.9547081375      PI        B2 (3)
  195    75         103.3449635356        2812.1594252269     SG+        A1 (1)
  196    76         114.9619604334        3128.2739817681      DE        A1 (1)
  197   217         114.9619604334        3128.2739817681      DE        A2 (4)
  198   186         115.1081503764        3132.2520123572      PI        B2 (3)
  199   134         115.1081503764        3132.2520123572      PI        B1 (2)
  200    77         115.3295118631        3138.2755646409     SG+        A1 (1)
  201   135         116.7338268970        3176.4889194427      PI        B1 (2)
  202   187         116.7338268970        3176.4889194429      PI        B2 (3)
  203    78         117.4506803507        3195.9954936148     SG+        A1 (1)
  204    79         121.8646562967        3316.1058853994     SG+        A1 (1)
  205    80         198.5548045300        5402.9509119785      DE        A1 (1)
  206   218         198.5548045300        5402.9509119785      DE        A2 (4)
  207   136         198.6575876134        5405.7477818676      PI        B1 (2)
  208   188         198.6575876134        5405.7477818676      PI        B2 (3)
  209    81         198.7801719603        5409.0834715298     SG+        A1 (1)
  210    82         216.2916524456        5885.5950809173     SG+        A1 (1)
  211   189         224.7880325077        6116.7933362986      PI        B2 (3)
  212   137         224.7880325077        6116.7933362987      PI        B1 (2)
  213    83         225.3404050323        6131.8241568444     SG+        A1 (1)
  214   138         395.2619243170       10755.6237660105      PI        B1 (2)
  215   190         395.2619243170       10755.6237660106      PI        B2 (3)
  216    84         395.8270307631       10771.0010941778     SG+        A1 (1)
  217    85         508.5962324117       13839.6070759513     SG+        A1 (1)
  218    86         895.1067854929       24357.0939239889     SG+        A1 (1)


  VSCF finished.

 @CHECKOUT-I, Total execution time (CPU/WALL):       52.02/      12.83 seconds.
--executable xvscf finished with status     0 in       12.87 seconds (walltime).
 --invoking executable--
/nfs/workspaces/public/cfour_mpi/bin/xvtran
 @GETMEM-I,  Allocated    3814 MB of main memory.
  Full RHF integral transformation
  Transformation of IIII integrals :
  1 pass through the AO integral file was required.
     4439008 AO integrals were read.
     8612750 MO integrals were written to HF2.
  Transformation of IIJJ integrals :
  1 pass through the AO integral file was required.
    10083472 AO integrals were read.
    14371679 MO integrals were written to HF2.
  Transformation of IJIJ integrals :
  1 pass through the AO integral file was required.
    19151757 AO integrals were read.
    26728735 MO integrals were written to HF2.
  Transformation of IJKL integrals :
  1 pass through the AO integral file was required.
    14156143 AO integrals were read.
    18114778 MO integrals were written to HF2.
  Summary of active molecular orbitals: 
------------------------------------------------------------------------
 
  Index      Eigenvalue    Symmetry    Index      Eigenvalue    Symmetry
------------------------------------------------------------------------
     1       -20.6471359        1       110         4.1383070        2
     2       -11.5189356        1       111         4.1566527        2
     3        -1.2831782        1       112         4.5375597        2
     4        -0.8039237        1       113         5.1581956        2
     5        -0.5343169        1       114         5.3439331        2
     6        -0.5006748        2       115         5.8998816        2
     7        -0.5006748        3       116         6.1298434        2
     8         0.0593973        1       117         6.3545653        2
     9         0.0689870        1       118         6.7895415        2
    10         0.1574026        1       119         7.2575295        2
    11         0.2012743        1       120         9.7335954        2
    12         0.2219114        1       121        10.7371032        2
    13         0.3008839        1       122        10.9760077        2
    14         0.3159970        1       123        11.8915771        2
    15         0.4220058        1       124        12.3554137        2
    16         0.5135290        1       125        13.1042339        2
    17         0.5499339        1       126        18.7230000        2
    18         0.7061683        1       127        26.5604118        2
    19         0.7391990        1       128        33.4308552        2
    20         0.8195834        1       129        47.2616470        2
    21         0.8600140        1       130        66.3067520        2
    22         0.8835676        1       131        98.5102892        2
    23         1.1321193        1       132        98.5370422        2
    24         1.3630557        1       133       103.3100763        2
    25         1.5840971        1       134       103.3374403        2
    26         1.5927768        1       135       115.1081504        2
    27         1.6792217        1       136       116.7338269        2
    28         1.9184667        1       137       198.6575876        2
    29         1.9545956        1       138       224.7880325        2
    30         2.0684733        1       139       395.2619243        2
    31         2.1268688        1       140        -0.0039506        3
    32         2.2221909        1       141         0.0817470        3
    33         2.2850286        1       142         0.1795193        3
    34         2.4018999        1       143         0.2854858        3
    35         2.6323293        1       144         0.4044727        3
    36         2.6449487        1       145         0.6234543        3
    37         2.9376644        1       146         0.7318552        3
    38         3.7084880        1       147         0.7769064        3
    39         3.8954853        1       148         0.8853942        3
    40         4.1242383        1       149         1.0389179        3
    41         4.1839183        1       150         1.4213048        3
    42         4.2921910        1       151         1.4922646        3
    43         4.4070475        1       152         1.6384952        3
    44         4.6814429        1       153         2.0735748        3
    45         4.7747860        1       154         2.2040227        3
    46         5.2254827        1       155         2.2125716        3
    47         5.8278874        1       156         2.2249643        3
    48         6.0410852        1       157         2.5103816        3
    49         6.1018860        1       158         2.5943172        3
    50         6.1853696        1       159         3.3960761        3
    51         6.3156777        1       160         3.9183443        3
    52         6.4886368        1       161         4.1383070        3
    53         7.0951797        1       162         4.1566527        3
    54         7.8211724        1       163         4.5375597        3
    55         9.5593781        1       164         5.1581956        3
    56        10.6544235        1       165         5.3439331        3
    57        10.6834720        1       166         5.8998816        3
    58        10.9630314        1       167         6.1298434        3
    59        11.1610147        1       168         6.3545653        3
    60        11.9919415        1       169         6.7895415        3
    61        12.5910512        1       170         7.2575295        3
    62        12.7282570        1       171         9.7335954        3
    63        13.5175761        1       172        10.7371032        3
    64        17.3464203        1       173        10.9760077        3
    65        19.6790615        1       174        11.8915771        3
    66        26.2592969        1       175        12.3554137        3
    67        27.0286007        1       176        13.1042339        3
    68        34.3174147        1       177        18.7230000        3
    69        35.5888753        1       178        26.5604118        3
    70        47.0732181        1       179        33.4308552        3
    71        47.5004557        1       180        47.2616470        3
    72        63.7671673        1       181        66.3067520        3
    73        67.0083771        1       182        98.5102892        3
    74        98.5239401        1       183        98.5370422        3
    75        98.5474238        1       184       103.3100763        3
    76       103.3103674        1       185       103.3374403        3
    77       103.3449635        1       186       115.1081504        3
    78       114.9619604        1       187       116.7338269        3
    79       115.3295119        1       188       198.6575876        3
    80       117.4506804        1       189       224.7880325        3
    81       121.8646563        1       190       395.2619243        3
    82       198.5548045        1       191         0.2219114        4
    83       198.7801720        1       192         0.5499339        4
    84       216.2916524        1       193         0.7391990        4
    85       225.3404050        1       194         0.8600140        4
    86       395.8270308        1       195         1.5840971        4
    87       508.5962324        1       196         1.6792217        4
    88       895.1067855        1       197         2.0684733        4
    89        -0.0039506        2       198         2.1268688        4
    90         0.0817470        2       199         2.2850286        4
    91         0.1795193        2       200         2.6449487        4
    92         0.2854858        2       201         3.7084880        4
    93         0.4044727        2       202         4.1839183        4
    94         0.6234543        2       203         4.2921910        4
    95         0.7318552        2       204         4.6814429        4
    96         0.7769064        2       205         5.8278874        4
    97         0.8853942        2       206         6.1018860        4
    98         1.0389179        2       207         6.3156777        4
    99         1.4213048        2       208         6.4886368        4
   100         1.4922646        2       209        10.6544235        4
   101         1.6384952        2       210        10.9630314        4
   102         2.0735748        2       211        11.9919415        4
   103         2.2040227        2       212        12.7282570        4
   104         2.2125716        2       213        26.2592969        4
   105         2.2249643        2       214        47.0732181        4
   106         2.5103816        2       215        98.5239401        4
   107         2.5943172        2       216       103.3103674        4
   108         3.3960761        2       217       114.9619604        4
   109         3.9183443        2       218       198.5548045        4
------------------------------------------------------------------------
  -20.6471358688161       -11.5189356186996       -1.28317821064363     
 -0.803923742319774      -0.534316902105304      -0.500674818037675     
 -0.500674818037682       5.939727323250793E-002  6.898701858492857E-002
  0.157402618659765       0.201274283605930       0.221911400332083     
  0.300883879781719       0.315997006616531       0.422005822457080     
  0.513528972346256       0.549933943030581       0.706168267255122     
  0.739198959379483       0.819583396553944       0.860013963263132     
  0.883567625277254        1.13211932998274        1.36305573038893     
   1.58409711179299        1.59277676325136        1.67922172228456     
   1.91846674377926        1.95459558516414        2.06847325114918     
   2.12686881918015        2.22219087909969        2.28502859128726     
   2.40189987699893        2.63232928046009        2.64494867832627     
   2.93766442241502        3.70848797664843        3.89548531842553     
   4.12423833453809        4.18391831016826        4.29219096248073     
   4.40704753822888        4.68144288572212        4.77478596673918     
   5.22548273793472        5.82788741667987        6.04108522187754     
   6.10188598356170        6.18536963514511        6.31567766916804     
   6.48863679904222        7.09517965034043        7.82117237154838     
   9.55937812522887        10.6544234946026        10.6834719986749     
   10.9630313835299        11.1610147150585        11.9919415043482     
[...]
 Convergence information after    13 iterations: 
 Largest element of residual vector : -0.19122256E-05.
 Largest element of DIIS residual   : -0.14939238E-05.
 Convergence information after    14 iterations: 
 Largest element of residual vector : -0.96020602E-06.
 Largest element of DIIS residual   : -0.86503889E-06.
 Convergence information after    15 iterations: 
 Largest element of residual vector : -0.40496703E-06.
 Largest element of DIIS residual   : -0.28469222E-06.
 Convergence information after    16 iterations: 
 Largest element of residual vector : -0.26075415E-06.
 Largest element of DIIS residual   : -0.14610448E-06.
 Convergence information after    17 iterations: 
 Largest element of residual vector : -0.12355194E-06.
 Largest element of DIIS residual   : -0.79703753E-07.
 Perturbed amplitude equations converged in    17 iterations.
  Dominant contributions to perturbed wavefunction:
    7    7  140   45  -0.2349412108 ABAB
    7    7   45  140  -0.2349412108 ABAB
    7    7  140   22  -0.2168713506 ABAB
    7    7   22  140  -0.2168713506 ABAB
    7    7  140   39  -0.2048315791 ABAB
    7    7   39  140  -0.2048315791 ABAB
    7    7  140   28   0.1900729824 ABAB
    7    7   28  140   0.1900729824 ABAB
    7    0   35    0   0.1749795256 AA  
    7    7  140   29  -0.1611821261 ABAB
    7    7   29  140  -0.1611821261 ABAB
    7    7  140   57  -0.1601772293 ABAB
    7    7   57  140  -0.1601772293 ABAB
    7    6   45   89  -0.1466305856 ABAB
    6    7   89   45  -0.1466305856 ABAB
    7    0   39    0   0.1436121625 AA  
    7    7  140   32  -0.1429414953 ABAB
    7    7   32  140  -0.1429414953 ABAB
    7    0   45    0   0.1425772150 AA  
    7    7  140   54   0.1411902913 ABAB
  norm of converged amps    1.67408677511232     
 Starting iterative solution of the perturbed Lambda equations.
 The DIIS procedure is used to accelerate convergence.
 Convergence criterion is 10**(-7).
 Maximum number of iterations is 100.
 Convergence information after     1 iterations: 
 Largest element of residual vector :  0.78086710E-01.
 Largest element of DIIS residual   :  0.78086710E-01.
 Convergence information after     2 iterations: 
 Largest element of residual vector :  0.16424535E-01.
 Largest element of DIIS residual   :  0.12384336E-01.
 Convergence information after     3 iterations: 
 Largest element of residual vector :  0.65867719E-02.
 Largest element of DIIS residual   : -0.62476168E-02.
 Convergence information after     4 iterations: 
 Largest element of residual vector : -0.37899582E-02.
 Largest element of DIIS residual   : -0.34352398E-02.
 Convergence information after     5 iterations: 
 Largest element of residual vector : -0.32643702E-02.
 Largest element of DIIS residual   : -0.25909864E-02.
 Convergence information after     6 iterations: 
 Largest element of residual vector : -0.16902778E-02.
 Largest element of DIIS residual   : -0.75011571E-03.
 Convergence information after     7 iterations: 
 Largest element of residual vector : -0.78177674E-03.
 Largest element of DIIS residual   : -0.37956494E-03.
 Convergence information after     8 iterations: 
 Largest element of residual vector : -0.27204500E-03.
 Largest element of DIIS residual   : -0.17445244E-03.
 Convergence information after     9 iterations: 
 Largest element of residual vector : -0.11634094E-03.
 Largest element of DIIS residual   : -0.59272568E-04.
 Convergence information after    10 iterations: 
 Largest element of residual vector : -0.52910638E-04.
 Largest element of DIIS residual   : -0.24209846E-04.
 Convergence information after    11 iterations: 
 Largest element of residual vector : -0.11460555E-04.
 Largest element of DIIS residual   : -0.56633771E-05.
 Convergence information after    12 iterations: 
 Largest element of residual vector : -0.34522886E-05.
 Largest element of DIIS residual   : -0.21298891E-05.
 Convergence information after    13 iterations: 
 Largest element of residual vector : -0.16932569E-05.
 Largest element of DIIS residual   : -0.14672630E-05.
 Convergence information after    14 iterations: 
 Largest element of residual vector : -0.68780735E-06.
 Largest element of DIIS residual   : -0.56350796E-06.
 Convergence information after    15 iterations: 
 Largest element of residual vector : -0.41017311E-06.
 Largest element of DIIS residual   : -0.19340945E-06.
 Convergence information after    16 iterations: 
 Largest element of residual vector : -0.16003968E-06.
 Largest element of DIIS residual   : -0.98615237E-07.
 Perturbed Lambda equations converged in    16 iterations.
  Dominant contributions to perturbed wavefunction:
    7    7  140   45  -0.1940693276 ABAB
    7    7   45  140  -0.1940693276 ABAB
    7    7  140   22  -0.1786198859 ABAB
    7    7   22  140  -0.1786198859 ABAB
    7    7  140   39  -0.1673653454 ABAB
    7    7   39  140  -0.1673653454 ABAB
    7    7  140   28   0.1593141272 ABAB
    7    7   28  140   0.1593141272 ABAB
    7    7  140   57  -0.1312383909 ABAB
    7    7   57  140  -0.1312383909 ABAB
    7    7  140   29  -0.1298388456 ABAB
    7    7   29  140  -0.1298388456 ABAB
    7    6   45   89  -0.1198280779 ABAB
    6    7   89   45  -0.1198280779 ABAB
    7    7  140   32  -0.1182883192 ABAB
    7    7   32  140  -0.1182883192 ABAB
    7    7  140   54   0.1167428772 ABAB
    7    7   54  140   0.1167428772 ABAB
    7    6   22   89  -0.1094454112 ABAB
    6    7   89   22  -0.1094454112 ABAB
        The DBOC first-order density matrix is being calculated 
             (Symmetry block 3, perturbation   2)
 term   2.94867125309364     
 final tnorm  0.797378633370193     
  norm contr. I: |<0|L dT/dx|0>|^2   0.000000000000000E+000
  norm contr. II: <0|[nabla(1+L)e-T][nabla e^T]|0>   2.94867125309364     
  total norm contribution   2.94867125309364     
 oo  8.195879373075442E-003
 vv  -19.6102389377217     
 vo  5.798103783237758E-002
  Correlated perturbed 1-el contribution to DBOC  -19.5440620205163       cm**-1
  SUM_I |dc_I/dx|^2 contribution to DBOC   9.86448115777961       cm**-1
 
 
  The total diagonal Born-Oppenheimer correction (DBOC) is:      0.0038699070 a.u.
  The total diagonal Born-Oppenheimer correction (DBOC) is:        849.346404 cm-1
 
 Total CC energy including DBOC  -113.086664749444     
 First-order density matrix is being calculated  (Symmetry block 3, perturbation   2)
 Calculation of the contributions of <pq||rs> to dI(i,j)/dx required   3.6 seconds.
 Calculation of the contributions of <pq||rs> to dI(a,b)/dx required  16.7 seconds.
 Calculation of the contributions of <pq||rs> to dI(i,a)/dx required   9.7 seconds.
 First-order Z-vector equations are solved for 1 perturbation.
 Convergence reached after  19 iterations.
        U*G(pq,rs) contribution is being calculated
             (Symmetry block 3, perturbation   2)

 CCSD contribution to force constants 

        0.0000000000        0.0000000000        0.0000000000
        0.0000000000        0.0000000000        0.0000000000
        0.0000000000        0.0000000000        0.0000000000
        0.0000000000        0.0000000000        0.0000000000
        0.0000000000        0.0000000000        0.0000000000
        0.0000000000        0.0000000000        0.0000000000
        0.0000000000        0.0000000000        0.0000000000
        0.0000000000        0.0000000000        0.0000000000
        0.0000000000        0.0000000000        0.0000000000
        0.0000000000        0.0000000000        0.0000000000
        0.0000000000        0.0000000000        0.0000000000
        0.0000000000       -4.1736951370        4.1736951370

 CCSD contribution to dipole derivatives 

        0.0000000000        0.0000000000        0.0000000000
        0.0000000000        0.0000000000        0.0000000000
        0.0000000000        0.0000000000        0.0000000000
        0.0000000000        0.0000000000       -0.0572809300
        0.0000000000        0.0000000000        0.0000000000
        0.0000000000        0.0000000000        0.0000000000
 @CHECKOUT-I, Total execution time (CPU/WALL):     1312.07/     510.07 seconds.
--executable xsdcc finished with status     0 in      510.28 seconds (walltime).
 --invoking executable--
/nfs/workspaces/public/cfour_mpi/bin/xanti
 @GETMEM-I,  Allocated    3814 MB of main memory.
 CCSD MO derivative gammas will be sorted to Mulliken order.
 @CHECKOUT-I, Total execution time (CPU/WALL):       12.86/      21.30 seconds.
--executable xanti finished with status     0 in       21.52 seconds (walltime).
 --invoking executable--
/nfs/workspaces/public/cfour_mpi/bin/xbcktrn
 @GETMEM-I,  Allocated    3814 MB of main memory.
 CCSD MO derivative gammas will be transformed to the AO basis.
 @CHECKOUT-I, Total execution time (CPU/WALL):       27.62/      14.93 seconds.
--executable xbcktrn finished with status     0 in       15.13 seconds (walltime).
 --invoking executable--
/nfs/workspaces/public/cfour_mpi/bin/xvdint
 @GETMEM-I,  Allocated    3814 MB of main memory.
 One- and two-electron integral derivatives are calculated
 for RHF-CC/MBPT hessians and dipole derivatives.
 Spherical gaussians are used.
  magnet F F
                    8722  records have been written to the Sort file.
  Total length of Sort file :             178609116  words.
 Evaluation of 2el integral derivatives

                      Two-electron integral gradient
                      ------------------------------

                         C #1 z     0.0000000000
                         O #2 z     0.0000000000


 C #1       0.0000000000            0.0674003474            0.0000000000
 O #2       0.0000000000           -0.0674003474            0.0000000000


 Evaluation of 2e integral derivatives required  353.00 seconds.
  contribution to Hessian
        0.0000000000        0.0000000000        0.0000000000
        0.0000000000        0.0674003474       -0.0674003474
 @CHECKOUT-I, Total execution time (CPU/WALL):      353.00/      72.53 seconds.
--executable xvdint finished with status     0 in       72.75 seconds (walltime).
 --invoking executable--
/nfs/workspaces/public/cfour_mpi/bin/xanti
 @GETMEM-I,  Allocated    3814 MB of main memory.
 CCSD MO gammas will be sorted to Mulliken order.
 @CHECKOUT-I, Total execution time (CPU/WALL):       16.57/      58.85 seconds.
--executable xanti finished with status     0 in       59.13 seconds (walltime).
 --invoking executable--
/nfs/workspaces/public/cfour_mpi/bin/xbcktrn
 @GETMEM-I,  Allocated    3814 MB of main memory.
 CCSD MO gammas will be transformed to the AO basis.
 @CHECKOUT-I, Total execution time (CPU/WALL):       59.67/      11.68 seconds.
--executable xbcktrn finished with status     0 in       11.75 seconds (walltime).
 --invoking executable--
/nfs/workspaces/public/cfour_mpi/bin/xvdint
 @GETMEM-I,  Allocated    3814 MB of main memory.
 One- and two-electron integral derivatives are calculated
 for RHF-CC/MBPT hessians and dipole derivatives.
 Spherical gaussians are used.
  magnet F F

                     Kinetic energy integral gradient
                     --------------------------------

                         C #1 z    -0.5480857761
                         O #2 z     0.5480857761


 C #1       0.0000000000            0.0000000000           -0.5480857761
 O #2       0.0000000000            0.0000000000            0.5480857761



                   Nuclear attraction integral gradient
                   ------------------------------------

                         C #1 z    13.9170435433
                         O #2 z   -13.9170435433


 C #1       0.0000000000            0.0000000000           13.9170435433
 O #2       0.0000000000            0.0000000000          -13.9170435433



                      Reorthonormalization gradient
                      -----------------------------

                         C #1 z     0.0000000000
                         O #2 z     0.0000000000


 C #1       0.0000000000            0.0000000000            0.0000000000
 O #2       0.0000000000            0.0000000000            0.0000000000



                     Kinetic energy integral Hessian
                     -------------------------------


           Symmetry 1

           C #1 z      O #2 z

 C #1 z    0.575609
 O #2 z   -0.575609    0.575609


           Symmetry 2

           C #1 x      O #2 x

 C #1 x   -0.423442
 O #2 x    0.423442   -0.423442


           Symmetry 3

           C #1 y      O #2 y

 C #1 y   -0.423442
 O #2 y    0.423442   -0.423442




           C #1 x      C #1 y      C #1 z      O #2 x      O #2 y      O #2 z

 C #1 x   -0.423442
 C #1 y    0.000000   -0.423442
 C #1 z    0.000000    0.000000    0.575609

 O #2 x    0.423442    0.000000    0.000000   -0.423442
 O #2 y    0.000000    0.423442    0.000000    0.000000   -0.423442
 O #2 z    0.000000    0.000000   -0.575609    0.000000    0.000000    0.575609




                   Nuclear attraction integral Hessian
                   -----------------------------------


           Symmetry 1

           C #1 z      O #2 z

 C #1 z   -8.477171
 O #2 z    8.477171   -8.477171


           Symmetry 2

           C #1 x      O #2 x

 C #1 x    7.533258
 O #2 x   -7.533258    7.533258


           Symmetry 3

           C #1 y      O #2 y

 C #1 y    7.533258
 O #2 y   -7.533258    7.533258




           C #1 x      C #1 y      C #1 z      O #2 x      O #2 y      O #2 z

 C #1 x    7.533258
 C #1 y    0.000000    7.533258
 C #1 z    0.000000    0.000000   -8.477171

 O #2 x   -7.533258    0.000000    0.000000    7.533258
 O #2 y    0.000000   -7.533258    0.000000    0.000000    7.533258
 O #2 z    0.000000    0.000000    8.477171    0.000000    0.000000   -8.477171




                Highest order reorthonormalization Hessian
                ------------------------------------------


           Symmetry 1

           C #1 z      O #2 z

 C #1 z    0.000000
 O #2 z    0.000000    0.000000


           Symmetry 2

           C #1 x      O #2 x

 C #1 x    0.000000
 O #2 x    0.000000    0.000000


           Symmetry 3

           C #1 y      O #2 y

 C #1 y    0.000000
 O #2 y    0.000000    0.000000




           C #1 x      C #1 y      C #1 z      O #2 x      O #2 y      O #2 z




                Electronic contributions to dipole moment
                -----------------------------------------

                               au             Debye

                    z     -0.73405940     -1.86579322

  Conversion factor used: 1 a.u. =   2.54174691 Debye 



   Electronic contributions to static part of dipole moment derivatives
   --------------------------------------------------------------------


                     Total dipole moment derivatives
                     -------------------------------


           Symmetry 1
                              Ez

               C #1 z    -5.62089910
               O #2 z    -8.37910090

           Symmetry 2
                              Ex

               C #1 x    -5.67413456
               O #2 x    -8.32586544

           Symmetry 3
                              Ey

               C #1 y    -5.67413456
               O #2 y    -8.32586544



                       Ex          Ey          Ez

      C #1    x   -5.674135    0.000000    0.000000
      C #1    y    0.000000   -5.674135    0.000000
      C #1    z    0.000000    0.000000   -5.620899

      O #2    x   -8.325865    0.000000    0.000000
      O #2    y    0.000000   -8.325865    0.000000
      O #2    z    0.000000    0.000000   -8.379101

 Evaluation of 1e integral derivatives required    1.75 seconds.
                    8815  records have been written to the Sort file.
  Total length of Sort file :             180513570  words.
 Evaluation of 2el integral derivatives

                      Two-electron integral gradient
                      ------------------------------

                         C #1 z    -7.4098210101
                         O #2 z     7.4098210101


 C #1       0.0000000000            0.0000000000           -7.4098210101
 O #2       0.0000000000            0.0000000000            7.4098210101


 Evaluation of 2e integral derivatives required  717.13 seconds.

                            Molecular gradient
                            ------------------

                         C #1 z     0.5935904672
                         O #2 z    -0.5935904672


 C #1       0.0000000000            0.0000000000            0.5935904672
 O #2       0.0000000000            0.0000000000           -0.5935904672


  Molecular gradient norm 0.839E+00

                            Molecular hessian
                            -----------------


           Symmetry 1

           C #1 z      O #2 z

 C #1 z   16.623127
 O #2 z  -16.623127   16.623127


           Symmetry 2

           C #1 x      O #2 x

 C #1 x    4.360637
 O #2 x   -4.360637    4.360637


           Symmetry 3

           C #1 y      O #2 y

 C #1 y    4.360637
 O #2 y   -4.360637    4.360637




           C #1 x      C #1 y      C #1 z      O #2 x      O #2 y      O #2 z

 C #1 x    4.360637
 C #1 y    0.000000    4.360637
 C #1 z    0.000000    0.000000   16.623127

 O #2 x   -4.360637    0.000000    0.000000    4.360637
 O #2 y    0.000000   -4.360637    0.000000    0.000000    4.360637
 O #2 z    0.000000    0.000000  -16.623127    0.000000    0.000000   16.623127




                           Total dipole moment
                           -------------------

                               au             Debye

                    z      0.46186414      1.17394176

  Conversion factor used: 1 a.u. =   2.54174691 Debye 



                     Total dipole moment derivatives
                     -------------------------------


           Symmetry 1
                              Ez

               C #1 z     0.58680352
               O #2 z    -0.58680352

           Symmetry 2
                              Ex

               C #1 x     0.16292280
               O #2 x    -0.16292280

           Symmetry 3
                              Ey

               C #1 y     0.16292280
               O #2 y    -0.16292280



                       Ex          Ey          Ez

      C #1    x    0.162923    0.000000    0.000000
      C #1    y    0.000000    0.162923    0.000000
      C #1    z    0.000000    0.000000    0.586804

      O #2    x   -0.162923    0.000000    0.000000
      O #2    y    0.000000   -0.162923    0.000000
      O #2    z    0.000000    0.000000   -0.586804

 @CHECKOUT-I, Total execution time (CPU/WALL):      718.85/     127.86 seconds.
--executable xvdint finished with status     0 in      128.09 seconds (walltime).
 --invoking executable--
/nfs/workspaces/public/cfour_mpi/bin/xjoda
  @GTFLGS-I, Hessian will be transformed to curvilinear coordinates.
  @GTFLGS-I, Hessian will be transformed to curvilinear coordinates.
  igrd and ihes are                      0                     1
  gradient from JOBARC 
   0.000000000000000   0.000000000000000   0.593590467175324
   0.000000000000000   0.000000000000000  -0.593590467175324
 
  @PROJFCM-I, Projecting force constant matrix onto totally symmetric subspace.
  Largest difference between matrix elements of symmetrized
  and unsymmetrized FCM :    -0.1056932319E-12.
  read isotopes from ZMAT file 
 
  Summary of diagonal Born-Oppenheimer correction at the correlated level
  The total diagonal Born-Oppenheimer correction (DBOC) is:      0.0038699070 a.u.
  The total diagonal Born-Oppenheimer correction (DBOC) is:        849.346404 cm-1
  The total diagonal Born-Oppenheimer correction (DBOC) is:            10.160 kJ/mole
  hellooooooo 
  readis is  F
 
 @CHECKOUT-I, Total execution time (CPU/WALL):        0.03/       0.11 seconds.
--executable xjoda finished with status     0 in        0.20 seconds (walltime).
  The final electronic energy is      -113.086664749444353 a.u. 
  This computation required                         4536.26 seconds (walltime).
