 --invoking executable--
/nfs/workspaces/public/cfour_mpi/bin/xjoda


   *************************************************************************
         <<<     CCCCCC     CCCCCC   |||     CCCCCC     CCCCCC   >>>
       <<<      CCC        CCC       |||    CCC        CCC         >>>
      <<<      CCC        CCC        |||   CCC        CCC            >>>
    <<<        CCC        CCC        |||   CCC        CCC              >>>
      <<<      CCC        CCC        |||   CCC        CCC            >>>
       <<<      CCC        CCC       |||    CCC        CCC         >>>
         <<<     CCCCCC     CCCCCC   |||     CCCCCC     CCCCCC   >>>
   *************************************************************************

     ****************************************************************
     * CFOUR Coupled-Cluster techniques for Computational Chemistry *
     ****************************************************************
 

   Department of Chemistry                Institut fuer Physikalische Chemie
   University of Florida                  Universitaet Mainz
   Gainesville, FL 32611, USA             D-55099 Mainz, Germany

   Department of Chemistry                Fakultaet fuer Chemie und Biowiss.
   Johns Hopkins University               Karlsruher Institut fuer Technologie
   Baltimore, MD 21218, USA               D-76131 Karlsruhe, Germany

   Department of Chemistry                Department of Physical Chemistry
   Southern Methodist University          Eotvos Lorand University
   Dallas, TX 75275, USA                  H-1053 Budapest, Hungary

 
                       Version 2.1
 
                     vincent.theory.phys.ucl.ac.uk                     
                     Sun  2 Mar 00:02:48 GMT 2025                      
                     integer*8 version is running
 
********************************************************************************
*                          Input from ZMAT file                                *
********************************************************************************
Carbon Monoxide DBOC calculation                                                
C                                                                               
O 1 r                                                                           
                                                                                
r=1.1482758620689655                                                            
                                                                                
                                                                                
*CFOUR(CALC=CCSD,BASIS=AUG-PCVQZ,SCF_CONV=10                                    
CC_CONV=14,DBOC=ON,MEMORY=500000000                                             
ZFIELD=-200)                                                                    
                                                                                
%isotopes                                                                       
12                                                                              
18                                                                              
********************************************************************************
  @GTFLGS-I, Hessian will be transformed to curvilinear coordinates.
    -------------------------------------------------------------------
                    CFOUR Control Parameters 
    -------------------------------------------------------------------
        External           Internal           Value            Units
          Name               Name
    -------------------------------------------------------------------
       ABCDTYPE             IABCDT         STANDARD    [  0]    ***   
       ANHARMONIC           IANHAR         OFF         [  0]    ***   
       ANH_ALGORIT          IANALG         STANDARD    [  0]    ***   
       ANH_DERIVAT          IANDER         SECOND      [  1]    ***   
       ANH_MODE             ANHMOD         VIBRATION   [  0]    ***   
       ANH_STEPSIZ          ICUBST             50000          x 10-6  
       ANH_SYMMETR          IANHSM         ABELIAN     [  0]    ***   
       AO_LADDERS           IAOLAD         SINGLEPASS  [  1]    ***   
       AV_SCF               IAVSCF         OFF         [  0]    ***   
       BASIS                IBASIS         AUG-PCVQZ   [ 52]    ***   
       BOTHVECTORS          BOTHVC         OFF         [  0]    ***   
       BOX_POTENT           IPIAB          OFF         [  0]    ***   
       BREIT                IBREIT         OFF         [  0]    ***   
       BRUCK_CONV           IBRTOL          10D-  4             ***   
       BRUECKNER            IBRKNR         OFF         [  0]    ***   
       BUFFERSIZE           IBUFFS              4096            ***   
       CACHE_RECS           ICHREC             10               ***   
       CALCLEVEL            ICLLVL         CCSD        [ 10]    ***   
       CCORBOPT             ICCORB         OFF         [  0]  x 0.01  
       CC_CONV              ICCCNV          10D- 14             ***   
       CC_EXPORDER          ICCEOR              5               ***   
       CC_EXTRAPOL          ICCEXT         DIIS        [  1]    ***   
       CC_GUESS             ICCGES         MP2         [  0]    ***   
       CC_MAXCYC            ICCCYC            100              cycles 
       CC_PROGRAM           ICCPRO         VCC         [  0]    ***   
       CHARGE               ICHRGE              0               ***   
       CHOLESKY             ICHOLE         OFF         [  0]    ***   
       CIS_CONV             ICISTL              5               ***   
       COMM_SIZE            IPSIZE            ***               ***   
       CONSTANT             ICONST         OLD         [  1]    ***   
       CONTINUUM            ICONTU         NONE        [  0]    ***   
       CONTRACTION          ICNTYP         GENERAL     [  1]    ***   
       COORDINATES          ICOORD         INTERNAL    [  0]    ***   
       CPHF_CONVER          ICPHFT          10D- 16             ***   
       CPHF_MAXCYC          ICPHFC             64              cycles 
       CUBIC                ICUBIC         OFF         [  0]    ***   
       CURVILINEAR          ICURVY         ON          [  1]    ***   
       DBOC                 IDBOC          ON          [  1]    ***   
       DCT                  IDCT           OFF         [  0]    ***   
       DERIV_LEV            IDRLVL         SECOND      [  2]    ***   
       DEVMEM_SIZE          IDVMEM          50000000           MByte  
       DIAG_MRCC            IEOMST          10D-  0             ***   
       DIFF_TYPE            IDIFTY         RELAXED     [  0]    ***   
       DIRECT               IDIRCT         OFF         [  0]    ***   
       DROPMO               IDRPMO      NONE         
       ECP                  IECP           OFF         [  0]    ***   
       EIGENVECTOR          IVEC                1               ***   
       EL_ANHARM            IELANH         OFF         [  0]    ***   
       EOMFOLLOW            IEOMSR         ENERGY      [  0]    ***   
       EOMIP                IEOMIP         OFF         [  0]    ***   
       EOMLEVEL             HBARFM         SAME        [  0]    ***   
       EOM_MRCC             IMRCCE         NEW         [  1]    ***   
       EOM_NONIT            EOMNON         OFF         [  0]    ***   
       EOM_NSING            IEOMSI          10D-  0             ***   
       EOM_NSTATES          IMRCCD         DAVIDSON    [  0]    ***   
       EOM_NTRIP            IEOMTR          10D-  0             ***   
       EOM_ORDER            IEXORD         ENERGY      [  0]    ***   
       EOM_PROPSTA          IEOMST              0               ***   
       ESTATE_CONV          IEXTOL          10D-  5             ***   
       ESTATE_DIAG          IEXDIG         ITERATIVE   [  0]    ***   
       ESTATE_LOCK          IESLOC         ON          [  1]    ***   
       ESTATE_MAXC          IEXMXC             40               ***   
       ESTATE_PROP          IEXPRP         OFF         [  0]    ***   
       EVAL_HESS            IRECAL              0            # of cyc.
       EXCITATION           IEXCIT              0               ***   
       EXCITE               IEXCIT         NONE        [  0]    ***   
       EXTERN_POT           IEXPOT         OFF         [  0]    ***   
       FCGRADNEW            IFCGNW         OFF         [  0]    ***   
       FC_FIELD             IFINFC              0             x 10-6  
       FD_CALTYPE           IFDCAL         GRADONLY    [  0]    ***   
       FD_PROJECT           IFDPRJ         OFF         [  1]    ***   
       FD_STEPSIZE          IDISFD              0            10-4 bohr
       FD_USEGROUP          IFDGRP         FULL        [  0]    ***   
       FILE_RECSIZ          IFLREC              4096           words  
       FINITE_PERT          IFIPER              0             x 10-6  
       FIXGEOM              IFIXGM         OFF         [  0]    ***   
       FOCK                 IFOCK          AO          [  1]    ***   
       FREQ_ALGORI          IVIALG         STANDARD    [  0]    ***   
       FROZEN_CORE          IFROCO         OFF         [  0]    ***   
       GAMMA_ABCD           IGABCD         STORE       [  0]    ***   
       GAMMA_ABCI           IGABCI         STORE       [  0]    ***   
       GENBAS_1             IGNBS1              0               ***   
       GENBAS_2             IGNBS2              0               ***   
       GENBAS_3             IGNBS3              0               ***   
       GENBAS_4             IGNBS4              0               ***   
       GEO_CONV             ICONTL              5              H/bohr 
       GEO_MAXCYC           IOPTCY             50               ***   
       GEO_MAXSTEP          IMXSTP            300            millibohr
       GEO_METHOD           INR            SINGLE_POINT[  5]    ***   
       GIAO                 IGIAO          OFF         [  1]    ***   
       GIMIC                IGIMIC         OFF         [  0]    ***   
       GRID                 IGRID          OFF         [  0]    ***   
       GRID_ALGO            IGALGO         SERIAL      [  0]    ***   
       GUESS                IGUESS         MOREAD      [  0]    ***   
       HBAR                 IHBAR          OFF         [  0]    ***   
       HESS_TYPE            IHESTP         SCF         [  0]    ***   
       HF2_FILE             IHF2Fl         USE         [  1]    ***   
       HFSTABILITY          ISTABL         OFF         [  0]    ***   
       INCORE               INCORE         OFF         [  0]    ***   
       INPUT_MRCC           IMRCC          ON          [  1]    ***   
       INTEGRALS            INTTYP         VMOL        [  1]    ***   
       JODA_PRINT           IJPRNT              0               ***   
       KEYWORD_OUT          IDMPKW         NO          [  0]    ***   
       LINDEP_TOL           ILINDP              8               ***   
       LINEQ_CONV           IZTACN          10D-  7           cycles  
       LINEQ_EXPOR          ILMAXD              5               ***   
       LINEQ_MAXCY          ILMAXC            100               ***   
       LINEQ_TYPE           ILTYPE         DIIS        [  1]    ***   
       LOCK_ORBOCC          ILOCOC         OFF         [  0]    ***   
       MEMORY_SIZE          IMEMSZ         500000000           words  
       MEM_UNIT             IMEMU          INTEGERWORDS[  0]    ***   
       MRCC                 IMRCCC         OFF         [  0]    ***   
       MULTIPLICTY          IMULTP              1               ***   
       NACOUPLING           IVCOUP         OFF         [  0]    ***   
       NEGEVAL              IDIE           ABORT       [  0]    ***   
       NEWNORM              INEWNO         OFF         [  0]    ***   
       NON-HF               INONHF         OFF         [  0]    ***   
       NTOP_TAMP            ITOPT2             15               ***   
       NUC_MODEL            INUCMO         POINT       [  0]    ***   
       OCCUPATION           IOCCU   ESTIMATED BY SCF 
       OPEN-SHELL           IOPEN          SPIN-ORBITAL[  0]    ***   
       OPTVIB               IOPTVB         OFF         [  0]    ***   
       ORBITALS             IORBTP         STANDARD    [  0]    ***   
       PARALLEL             IPARAL         ON          [  1]    ***   
       PARA_INT             IPINTS         ON          [  1]    ***   
       PARA_PRINT           IPPRIN              0               ***   
       PERT_ORB             IPTORB         STANDARD    [  0]    ***   
       POINTS               IGRDFD              0               ***   
       PRINT                IPRNT               0               ***   
       PROPS                IPROPS         OFF         [  0]    ***   
       PROP_INTEGR          IINTYP         INTERNAL    [  0]    ***   
       PSI                  IPSI           OFF         [  0]    ***   
       QC_ALG               IQCALG         FLM         [  0]    ***   
       QC_LINALG            IQCLIN         TRIDIAG     [  2]    ***   
       QC_MAXCYC            IQCMAX          10D-100           cycles  
       QC_MAXSCFCY          IQCMSC          10D- 15           cycles  
       QC_RTRUST            IQCRTR          10D-  0           x 10-3  
       QC_SKIPSCF           IQCSKI         OFF         [  0]    ***   
       QC_START             IQCSTA          10D-  1             ***   
       QRHFGUESS            IQGUES         OFF         [  0]    ***   
       QUARTIC              IQUART         OFF         [  0]    ***   
       RAMAN_INT            IRAMIN         OFF         [  0]    ***   
       RAMAN_ORB            IRAMRE         UNRELAXED   [  0]    ***   
       RDO                  IRDOFM         ON          [  1]    ***   
       REDUCE_REPR          REDREP         Ir          [  0]    ***   
       REFERENCE            IREFNC         RHF         [  0]    ***   
       RELATIVIST           IRELAT         OFF         [  0]    ***   
       RELAX_DENS           IRDENS         ON          [  1]    ***   
       RESET_FLAGS          IRESET         OFF         [  0]    ***   
       RESTART_CC           ICCRES         OFF         [  0]    ***   
       ROT_EVEC             ROTVEC              0               ***   
       SAVE_INTS            ISVINT         OFF         [  0]    ***   
       SCALE_ON             ISTCRT              0               ***   
       SCF_CONV             ISCFCV          10D- 10             ***   
       SCF_DAMPING          IDAMP               0             x 10-3  
       SCF_EXPORDE          IRPPOR              6               ***   
       SCF_EXPSTAR          IRPPLS              8               ***   
       SCF_EXTRAPO          IRPP           ON          [  1]    ***   
       SCF_MAXCYC           ISCFCY            150              cycles 
       SCF_NOSTOP           ISCFST         OFF         [  0]    ***   
       SCF_PRINT            ISCFPR              0               ***   
       SCF_PROG             ISCFPR         SCF         [  0]    ***   
       SD_FIELD             IFINSD              0             x 10-6  
       SOPERT               IPERSO         OFF         [  0]    ***   
       SPHERICAL            IDFGHI         ON          [  1]    ***   
       SPINORBIT            ISOCAL         OFF         [  0]    ***   
       SPINROTATIO          ISRCON         OFF         [  0]    ***   
       SPIN_FLIP            ISPFLP         OFF         [  0]    ***   
       SPIN_ORBIT           ISPORB         OFF         [  0]    ***   
       SPIN_SCAL            ISCSMP         OFF         [  0]    ***   
       STEEPSCALE           ISTPSC              1000          x 10-3  
       SUBGROUP             ISUBGP         DEFAULT     [  0]    ***   
       SUBGRPAXIS           ISBXYZ         X           [  0]    ***   
       SYMMETRY             ISYM           ON          [  0]    ***   
       SYM_CHECK            ISYMCK         OVERRIDE    [  1]    ***   
       T3_EXTRAPOL          IT3EXT         OFF         [  0]    ***   
       T4_EXTRAPOL          IT4EXP         OFF         [  0]    ***   
       TAMP_SUM             IEVERY              5               ***   
       TESTSUITE            ITESTS         OFF         [  0]    ***   
       THERMOCH             ITHERM         OFF         [  0]    ***   
       TOL_CHOLESK          ITOLCH          10D-  4             ***   
       TRANGRAD             IRESRM         OFF         [  0]    ***   
       TRANS_INV            ITRAIN         IGNORE      [  1]    ***   
       TREAT_PERT           ITREAT         SIMULTANEOUS[  0]    ***   
       TRIP_ALGORI          ITRALG         NORMAL      [  0]    ***   
       UIJ_THRESHO          IUIJTH              1               ***   
       UNITS                IUNITS         ANGSTROM    [  0]    ***   
       UNOS                 IUNOS          OFF         [  0]    ***   
       UPDATE_HESS          IHUPDT         ON          [  1]    ***   
       VIBPHASE             ISETPH         STANDARD    [  0]    ***   
       VIBRATION            IVIB           ANALYTIC    [  1]    ***   
       VIB_ALGORIT          IGEALG         STANDARD    [  0]    ***   
       VNATORB              IVNORB         OFF         [  0]    ***   
       VTRAN                IVTRAN         FULL/PARTIAL[  0]    ***   
       XFIELD               IXEFLD              0             x 10-6  
       XFORM_TOL            IXFTOL          10D- 11             ***   
       YFIELD               IYEFLD              0             x 10-6  
       ZFIELD               IZEFLD            ***             x 10-6  
       ZSCALE_EXP           IZEXPS         OFF         [  0]    ***   
    -------------------------------------------------------------------
   2 entries found in Z-matrix 
   Job Title : Carbon Monoxide DBOC calculation                                                
   There are  1 unique internal coordinates.
   Of these,  0 will be optimized.
   User supplied Z-matrix: 
--------------------------------------------------------------------------------
       SYMBOL    BOND      LENGTH    ANGLE     ANGLE     DIHED     ANGLE
                  TO      (ANGST)    WRT      (DEG)      WRT      (DEG)
--------------------------------------------------------------------------------
        C    
        O          1         r    
                  *Initial values for internal coordinates* 
                      Name             Value
                        r               1.1482758621
--------------------------------------------------------------------------------
  read isotopes from ZMAT file 
   Rotational constants (in cm-1): 
          1.7757412843             1.7757412843
   Rotational constants (in MHz): 
      53235.3918987861         53235.3918987861
********************************************************************************
   The full molecular point group is CXv .
   The largest Abelian subgroup of the full molecular point group is C2v .
   The computational point group is C2v .
********************************************************************************
--------------------------------------------------------------------------------
   Analysis of internal coordinates specified by Z-matrix 
--------------------------------------------------------------------------------
   *The nuclear repulsion energy is   22.120556252252253 a.u.
   *There is   1 degree of freedom within the tot. symm. molecular subspace.
   *Z-matrix requests optimization of   0 coordinates.
   *The optimization is constrained.
   *The following   1 parameters can have non-zero 
    derivatives within the totally symmetric subspace:
             r    [ 1]
   *The following   0 parameters are to be optimized:

   *The following coordinates must be varied in an  unconstrained optimization.
             r    [ 1]
--------------------------------------------------------------------------------


 ----------------------------------------------------------------
         Coordinates used in calculation (QCOMP) 
 ----------------------------------------------------------------
 Z-matrix   Atomic            Coordinates (in bohr)
  Symbol    Number           X              Y              Z
 ----------------------------------------------------------------
     C         6        -0.00000000     0.00000000     1.30193211
     O         8         0.00000000     0.00000000    -0.86799524
 ----------------------------------------------------------------
 
   Interatomic distance matrix (Angstroms) 
 
                 C             O    
                [ 1]        [ 2]
  C    [ 1]     0.00000
  O    [ 2]     1.14828     0.00000
 rotcon2
   Rotational constants (in cm-1): 
          1.7757412843             0.0000000000
   Rotational constants (in MHz): 
      53235.3918987861             0.0000000000
  ECPDATA file not present.   Using default ECPDATA. 
  @GTFLGS-I, Hessian will be transformed to curvilinear coordinates.
  There are  218 basis functions.
 @CHECKOUT-I, Total execution time (CPU/WALL):        0.25/       0.29 seconds.
--executable xjoda finished with status     0 in        0.32 seconds (walltime).
 --invoking executable--
/nfs/workspaces/public/cfour_mpi/bin/xvmol
 SERIAL VERSION OF MOLECULE STARTED
********************************************************************************
                    INPUT FROM MOL FILE
********************************************************************************
INTGRL        1    0    1    0    0    0    0    0    0                         
         *** CFOUR Program System (Release V0.1) ***                            
Carbon Monoxide DBOC calculation                                                
    2    2 X  Y       0.10E-08              0    0                              
   9999.00      3.00                                                            
          6.00000000    1    5    1    1    1    1    1                         
C #1  -0.000000000000000   0.000000000000000   1.301932114569915                
   16    9                                                                      
   33980.0000000000       9.100000000000000E-005 -1.900000000000000E-005        
  0.000000000000000E+000  0.000000000000000E+000  0.000000000000000E+000        
  0.000000000000000E+000  0.000000000000000E+000  0.000000000000000E+000        
  0.000000000000000E+000                                                        
   5089.00000000000       7.040000000000000E-004 -1.510000000000000E-004        
  0.000000000000000E+000  0.000000000000000E+000  0.000000000000000E+000        
  0.000000000000000E+000  0.000000000000000E+000  0.000000000000000E+000        
  0.000000000000000E+000                                                        
   1157.00000000000       3.693000000000000E-003 -7.850000000000000E-004        
  0.000000000000000E+000  0.000000000000000E+000  0.000000000000000E+000        
  0.000000000000000E+000  0.000000000000000E+000  0.000000000000000E+000        
  0.000000000000000E+000                                                        
   326.600000000000       1.536000000000000E-002 -3.324000000000000E-003        
  0.000000000000000E+000  0.000000000000000E+000  0.000000000000000E+000        
  0.000000000000000E+000  0.000000000000000E+000  0.000000000000000E+000        
  0.000000000000000E+000                                                        
   106.100000000000       5.292900000000000E-002 -1.151200000000000E-002        
  0.000000000000000E+000  0.000000000000000E+000  0.000000000000000E+000        
  0.000000000000000E+000  0.000000000000000E+000  0.000000000000000E+000        
  0.000000000000000E+000                                                        
   38.1100000000000       0.147043000000000      -3.416000000000000E-002        
  0.000000000000000E+000  0.000000000000000E+000  0.000000000000000E+000        
  0.000000000000000E+000  0.000000000000000E+000  0.000000000000000E+000        
  0.000000000000000E+000                                                        
   14.7500000000000       0.305631000000000      -7.717300000000001E-002        
  0.000000000000000E+000  0.000000000000000E+000  0.000000000000000E+000        
  0.000000000000000E+000  0.000000000000000E+000  0.000000000000000E+000        
  0.000000000000000E+000                                                        
   6.03500000000000       0.399345000000000      -0.141493000000000             
  0.000000000000000E+000  0.000000000000000E+000  0.000000000000000E+000        
  0.000000000000000E+000  0.000000000000000E+000  0.000000000000000E+000        
  0.000000000000000E+000                                                        
   2.53000000000000       0.217051000000000      -0.118019000000000             
  0.000000000000000E+000  0.000000000000000E+000  0.000000000000000E+000        
  0.000000000000000E+000  0.000000000000000E+000  0.000000000000000E+000        
  0.000000000000000E+000                                                        
  0.735500000000000       1.589400000000000E-002  0.273806000000000             
   1.00000000000000       0.000000000000000E+000  0.000000000000000E+000        
  0.000000000000000E+000  0.000000000000000E+000  0.000000000000000E+000        
  0.000000000000000E+000                                                        
  0.290500000000000      -3.084000000000000E-003  0.586510000000000             
  0.000000000000000E+000   1.00000000000000       0.000000000000000E+000        
  0.000000000000000E+000  0.000000000000000E+000  0.000000000000000E+000        
  0.000000000000000E+000                                                        
  0.111100000000000       9.779999999999999E-004  0.285430000000000             
  0.000000000000000E+000  0.000000000000000E+000   1.00000000000000             
  0.000000000000000E+000  0.000000000000000E+000  0.000000000000000E+000        
  0.000000000000000E+000                                                        
   7.21600000000000       0.000000000000000E+000  0.000000000000000E+000        
  0.000000000000000E+000  0.000000000000000E+000  0.000000000000000E+000        
   1.00000000000000       0.000000000000000E+000  0.000000000000000E+000        
  0.000000000000000E+000                                                        
   19.5700000000000       0.000000000000000E+000  0.000000000000000E+000        
  0.000000000000000E+000  0.000000000000000E+000  0.000000000000000E+000        
  0.000000000000000E+000   1.00000000000000       0.000000000000000E+000        
  0.000000000000000E+000                                                        
   53.0730000000000       0.000000000000000E+000  0.000000000000000E+000        
  0.000000000000000E+000  0.000000000000000E+000  0.000000000000000E+000        
  0.000000000000000E+000  0.000000000000000E+000   1.00000000000000             
  0.000000000000000E+000                                                        
  4.145000000000000E-002  0.000000000000000E+000  0.000000000000000E+000        
  0.000000000000000E+000  0.000000000000000E+000  0.000000000000000E+000        
  0.000000000000000E+000  0.000000000000000E+000  0.000000000000000E+000        
   1.00000000000000                                                             
   10    8                                                                      
   34.5100000000000       5.378000000000000E-003  0.000000000000000E+000        
  0.000000000000000E+000  0.000000000000000E+000  0.000000000000000E+000        
  0.000000000000000E+000  0.000000000000000E+000  0.000000000000000E+000        
   7.91500000000000       3.613200000000000E-002  0.000000000000000E+000        
  0.000000000000000E+000  0.000000000000000E+000  0.000000000000000E+000        
  0.000000000000000E+000  0.000000000000000E+000  0.000000000000000E+000        
   2.36800000000000       0.142493000000000       0.000000000000000E+000        
  0.000000000000000E+000  0.000000000000000E+000  0.000000000000000E+000        
  0.000000000000000E+000  0.000000000000000E+000  0.000000000000000E+000        
  0.813200000000000       0.342150000000000        1.00000000000000             
  0.000000000000000E+000  0.000000000000000E+000  0.000000000000000E+000        
  0.000000000000000E+000  0.000000000000000E+000  0.000000000000000E+000        
  0.289000000000000       0.463864000000000       0.000000000000000E+000        
   1.00000000000000       0.000000000000000E+000  0.000000000000000E+000        
  0.000000000000000E+000  0.000000000000000E+000  0.000000000000000E+000        
  0.100700000000000       0.250028000000000       0.000000000000000E+000        
  0.000000000000000E+000   1.00000000000000       0.000000000000000E+000        
  0.000000000000000E+000  0.000000000000000E+000  0.000000000000000E+000        
   8.18200000000000       0.000000000000000E+000  0.000000000000000E+000        
  0.000000000000000E+000  0.000000000000000E+000   1.00000000000000             
  0.000000000000000E+000  0.000000000000000E+000  0.000000000000000E+000        
   24.1860000000000       0.000000000000000E+000  0.000000000000000E+000        
  0.000000000000000E+000  0.000000000000000E+000  0.000000000000000E+000        
   1.00000000000000       0.000000000000000E+000  0.000000000000000E+000        
   71.4940000000000       0.000000000000000E+000  0.000000000000000E+000        
  0.000000000000000E+000  0.000000000000000E+000  0.000000000000000E+000        
  0.000000000000000E+000   1.00000000000000       0.000000000000000E+000        
  3.218000000000000E-002  0.000000000000000E+000  0.000000000000000E+000        
  0.000000000000000E+000  0.000000000000000E+000  0.000000000000000E+000        
  0.000000000000000E+000  0.000000000000000E+000   1.00000000000000             
    6    6                                                                      
   1.84800000000000        1.00000000000000       0.000000000000000E+000        
  0.000000000000000E+000  0.000000000000000E+000  0.000000000000000E+000        
  0.000000000000000E+000                                                        
  0.649000000000000       0.000000000000000E+000   1.00000000000000             
  0.000000000000000E+000  0.000000000000000E+000  0.000000000000000E+000        
  0.000000000000000E+000                                                        
  0.228000000000000       0.000000000000000E+000  0.000000000000000E+000        
   1.00000000000000       0.000000000000000E+000  0.000000000000000E+000        
  0.000000000000000E+000                                                        
   8.65600000000000       0.000000000000000E+000  0.000000000000000E+000        
  0.000000000000000E+000   1.00000000000000       0.000000000000000E+000        
  0.000000000000000E+000                                                        
   33.2130000000000       0.000000000000000E+000  0.000000000000000E+000        
  0.000000000000000E+000  0.000000000000000E+000   1.00000000000000             
  0.000000000000000E+000                                                        
  7.660000000000000E-002  0.000000000000000E+000  0.000000000000000E+000        
  0.000000000000000E+000  0.000000000000000E+000  0.000000000000000E+000        
   1.00000000000000                                                             
    4    4                                                                      
   1.41900000000000        1.00000000000000       0.000000000000000E+000        
  0.000000000000000E+000  0.000000000000000E+000                                
  0.485000000000000       0.000000000000000E+000   1.00000000000000             
  0.000000000000000E+000  0.000000000000000E+000                                
   24.6940000000000       0.000000000000000E+000  0.000000000000000E+000        
   1.00000000000000       0.000000000000000E+000                                
  0.187000000000000       0.000000000000000E+000  0.000000000000000E+000        
  0.000000000000000E+000   1.00000000000000                                     
    2    2                                                                      
   1.01100000000000        1.00000000000000       0.000000000000000E+000        
  0.424000000000000       0.000000000000000E+000   1.00000000000000             
          8.00000000    1    5    1    1    1    1    1                         
O #2   0.000000000000000   0.000000000000000  -0.867995235024324                
   16    9                                                                      
   61420.0000000000       9.000000000000001E-005 -2.000000000000000E-005        
  0.000000000000000E+000  0.000000000000000E+000  0.000000000000000E+000        
  0.000000000000000E+000  0.000000000000000E+000  0.000000000000000E+000        
  0.000000000000000E+000                                                        
   9199.00000000000       6.980000000000001E-004 -1.590000000000000E-004        
  0.000000000000000E+000  0.000000000000000E+000  0.000000000000000E+000        
  0.000000000000000E+000  0.000000000000000E+000  0.000000000000000E+000        
  0.000000000000000E+000                                                        
   2091.00000000000       3.664000000000000E-003 -8.290000000000000E-004        
  0.000000000000000E+000  0.000000000000000E+000  0.000000000000000E+000        
  0.000000000000000E+000  0.000000000000000E+000  0.000000000000000E+000        
  0.000000000000000E+000                                                        
   590.900000000000       1.521800000000000E-002 -3.508000000000000E-003        
  0.000000000000000E+000  0.000000000000000E+000  0.000000000000000E+000        
  0.000000000000000E+000  0.000000000000000E+000  0.000000000000000E+000        
  0.000000000000000E+000                                                        
   192.300000000000       5.242300000000000E-002 -1.215600000000000E-002        
  0.000000000000000E+000  0.000000000000000E+000  0.000000000000000E+000        
  0.000000000000000E+000  0.000000000000000E+000  0.000000000000000E+000        
  0.000000000000000E+000                                                        
   69.3200000000000       0.145921000000000      -3.626100000000000E-002        
  0.000000000000000E+000  0.000000000000000E+000  0.000000000000000E+000        
  0.000000000000000E+000  0.000000000000000E+000  0.000000000000000E+000        
  0.000000000000000E+000                                                        
   26.9700000000000       0.305258000000000      -8.299200000000000E-002        
  0.000000000000000E+000  0.000000000000000E+000  0.000000000000000E+000        
  0.000000000000000E+000  0.000000000000000E+000  0.000000000000000E+000        
  0.000000000000000E+000                                                        
   11.1000000000000       0.398508000000000      -0.152090000000000             
  0.000000000000000E+000  0.000000000000000E+000  0.000000000000000E+000        
  0.000000000000000E+000  0.000000000000000E+000  0.000000000000000E+000        
  0.000000000000000E+000                                                        
   4.68200000000000       0.216980000000000      -0.115331000000000             
  0.000000000000000E+000  0.000000000000000E+000  0.000000000000000E+000        
  0.000000000000000E+000  0.000000000000000E+000  0.000000000000000E+000        
  0.000000000000000E+000                                                        
   1.42800000000000       1.759400000000000E-002  0.288979000000000             
   1.00000000000000       0.000000000000000E+000  0.000000000000000E+000        
  0.000000000000000E+000  0.000000000000000E+000  0.000000000000000E+000        
  0.000000000000000E+000                                                        
  0.554700000000000      -2.502000000000000E-003  0.586128000000000             
  0.000000000000000E+000   1.00000000000000       0.000000000000000E+000        
  0.000000000000000E+000  0.000000000000000E+000  0.000000000000000E+000        
  0.000000000000000E+000                                                        
  0.206700000000000       9.540000000000000E-004  0.277624000000000             
  0.000000000000000E+000  0.000000000000000E+000   1.00000000000000             
  0.000000000000000E+000  0.000000000000000E+000  0.000000000000000E+000        
  0.000000000000000E+000                                                        
   12.9740000000000       0.000000000000000E+000  0.000000000000000E+000        
  0.000000000000000E+000  0.000000000000000E+000  0.000000000000000E+000        
   1.00000000000000       0.000000000000000E+000  0.000000000000000E+000        
  0.000000000000000E+000                                                        
   34.9000000000000       0.000000000000000E+000  0.000000000000000E+000        
  0.000000000000000E+000  0.000000000000000E+000  0.000000000000000E+000        
  0.000000000000000E+000   1.00000000000000       0.000000000000000E+000        
  0.000000000000000E+000                                                        
   93.8810000000000       0.000000000000000E+000  0.000000000000000E+000        
  0.000000000000000E+000  0.000000000000000E+000  0.000000000000000E+000        
  0.000000000000000E+000  0.000000000000000E+000   1.00000000000000             
  0.000000000000000E+000                                                        
  6.959000000000000E-002  0.000000000000000E+000  0.000000000000000E+000        
  0.000000000000000E+000  0.000000000000000E+000  0.000000000000000E+000        
  0.000000000000000E+000  0.000000000000000E+000  0.000000000000000E+000        
   1.00000000000000                                                             
   10    8                                                                      
   63.4200000000000       6.044000000000000E-003  0.000000000000000E+000        
  0.000000000000000E+000  0.000000000000000E+000  0.000000000000000E+000        
  0.000000000000000E+000  0.000000000000000E+000  0.000000000000000E+000        
   14.6600000000000       4.179900000000000E-002  0.000000000000000E+000        
  0.000000000000000E+000  0.000000000000000E+000  0.000000000000000E+000        
  0.000000000000000E+000  0.000000000000000E+000  0.000000000000000E+000        
   4.45900000000000       0.161143000000000       0.000000000000000E+000        
  0.000000000000000E+000  0.000000000000000E+000  0.000000000000000E+000        
  0.000000000000000E+000  0.000000000000000E+000  0.000000000000000E+000        
   1.53100000000000       0.356731000000000        1.00000000000000             
  0.000000000000000E+000  0.000000000000000E+000  0.000000000000000E+000        
  0.000000000000000E+000  0.000000000000000E+000  0.000000000000000E+000        
  0.530200000000000       0.448309000000000       0.000000000000000E+000        
   1.00000000000000       0.000000000000000E+000  0.000000000000000E+000        
  0.000000000000000E+000  0.000000000000000E+000  0.000000000000000E+000        
  0.175000000000000       0.244940000000000       0.000000000000000E+000        
  0.000000000000000E+000   1.00000000000000       0.000000000000000E+000        
  0.000000000000000E+000  0.000000000000000E+000  0.000000000000000E+000        
   14.4750000000000       0.000000000000000E+000  0.000000000000000E+000        
  0.000000000000000E+000  0.000000000000000E+000   1.00000000000000             
  0.000000000000000E+000  0.000000000000000E+000  0.000000000000000E+000        
   42.7300000000000       0.000000000000000E+000  0.000000000000000E+000        
  0.000000000000000E+000  0.000000000000000E+000  0.000000000000000E+000        
   1.00000000000000       0.000000000000000E+000  0.000000000000000E+000        
   126.140000000000       0.000000000000000E+000  0.000000000000000E+000        
  0.000000000000000E+000  0.000000000000000E+000  0.000000000000000E+000        
  0.000000000000000E+000   1.00000000000000       0.000000000000000E+000        
  5.348000000000000E-002  0.000000000000000E+000  0.000000000000000E+000        
  0.000000000000000E+000  0.000000000000000E+000  0.000000000000000E+000        
  0.000000000000000E+000  0.000000000000000E+000   1.00000000000000             
    6    6                                                                      
   3.77500000000000        1.00000000000000       0.000000000000000E+000        
  0.000000000000000E+000  0.000000000000000E+000  0.000000000000000E+000        
  0.000000000000000E+000                                                        
   1.30000000000000       0.000000000000000E+000   1.00000000000000             
  0.000000000000000E+000  0.000000000000000E+000  0.000000000000000E+000        
  0.000000000000000E+000                                                        
  0.444000000000000       0.000000000000000E+000  0.000000000000000E+000        
   1.00000000000000       0.000000000000000E+000  0.000000000000000E+000        
  0.000000000000000E+000                                                        
   14.9270000000000       0.000000000000000E+000  0.000000000000000E+000        
  0.000000000000000E+000   1.00000000000000       0.000000000000000E+000        
  0.000000000000000E+000                                                        
   57.5440000000000       0.000000000000000E+000  0.000000000000000E+000        
  0.000000000000000E+000  0.000000000000000E+000   1.00000000000000             
  0.000000000000000E+000                                                        
  0.154000000000000       0.000000000000000E+000  0.000000000000000E+000        
  0.000000000000000E+000  0.000000000000000E+000  0.000000000000000E+000        
   1.00000000000000                                                             
    4    4                                                                      
   2.66600000000000        1.00000000000000       0.000000000000000E+000        
  0.000000000000000E+000  0.000000000000000E+000                                
  0.859000000000000       0.000000000000000E+000   1.00000000000000             
  0.000000000000000E+000  0.000000000000000E+000                                
   26.4830000000000       0.000000000000000E+000  0.000000000000000E+000        
   1.00000000000000       0.000000000000000E+000                                
  0.324000000000000       0.000000000000000E+000  0.000000000000000E+000        
  0.000000000000000E+000   1.00000000000000                                     
    2    2                                                                      
   1.84600000000000        1.00000000000000       0.000000000000000E+000        
  0.714000000000000       0.000000000000000E+000   1.00000000000000             
FINISH                                                                          
 
********************************************************************************
 ONE- AND TWO-ELECTRON INTEGRALS OVER SYMMETRY-ADAPTED AOS ARE CALCULATED.

  SPHERICAL HARMONICS ARE USED.
  
  INTEGRALS LESS THAN  0.10E-13 ARE NEGLECTED.

  NUCLEAR REPULSION ENERGY :   22.1205562523 A.U.
  @MOLECU-I, ONE ELECTRON INTEGRALS (CPU/WALL):        0.05/       0.06 SECONDS.
  @TWOEL-I,    4587106 INTEGRALS OF SYMMETRY TYPE  I I I I
  @TWOEL-I,   19695621 INTEGRALS OF SYMMETRY TYPE  I J I J
  @TWOEL-I,   10378887 INTEGRALS OF SYMMETRY TYPE  I I J J
  @TWOEL-I,   14572675 INTEGRALS OF SYMMETRY TYPE  I J K L
  @TWOEL-I, TOTAL NUMBER OF 2-E INTEGRALS   49234289.
  @MOLECU-I, TWO ELECTRON INTEGRALS (CPU/WALL):      238.11/      32.28 SECONDS.
 @CHECKOUT-I, Total execution time (CPU/WALL):      238.18/      32.36 seconds.

Running with 14 threads/proc

--executable xvmol finished with status     0 in       32.39 seconds (walltime).
 --invoking executable--
/nfs/workspaces/public/cfour_mpi/bin/xvmol2ja
 @GETMEM-I,  Allocated    3814 MB of main memory.
 @CHECKOUT-I, Total execution time (CPU/WALL):        0.21/       0.08 seconds.
--executable xvmol2ja finished with status     0 in        0.13 seconds (walltime).
 --invoking executable--
/nfs/workspaces/public/cfour_mpi/bin/xvprop
 @GETMEM-I,  Allocated    3814 MB of main memory.
   Property integrals will be calculated.
    --------------------------------------------------------------
                                   Property evaluated at 
    Property type                X             Y             Z
    --------------------------------------------------------------
    Dipole moment               ----          ----          ----  
    Quadrupole moment           ----          ----          ----  
    Octopole moment             ----          ----          ----  
    Relativisitic corr.         ----          ----          ----  
    Second moment            0.0000000     0.0000000     0.0000000
    Electron density         0.0000000     0.0000000     1.3019321
    Electron density         0.0000000     0.0000000    -0.8679952
    Field gradient           0.0000000     0.0000000     1.3019321
    Field gradient           0.0000000     0.0000000    -0.8679952
    Potential                0.0000000     0.0000000     1.3019321
    Potential                0.0000000     0.0000000    -0.8679952
    --------------------------------------------------------------
 @CHECKOUT-I, Total execution time (CPU/WALL):        1.33/       1.38 seconds.
--executable xvprop finished with status     0 in        1.41 seconds (walltime).
 --invoking executable--
/nfs/workspaces/public/cfour_mpi/bin/xvscf
  There are  218 functions in the AO basis.

  There are 4 irreducible representations.

       Irrep        # of functions
         1                 86
         2                 52
         3                 52
         4                 28


  Parameters for SCF calculation: 
        SCF reference function:  RHF  
  Maximum number of iterations:  150
     Full symmetry point group: CXv 
     Computational point group: C2v 
        Initial density matrix: MOREAD                 
     SCF convergence tolerance: 10**(-10)
  DIIS convergence acceleration:  ON
          Latest start for DIIS:   8
                     DIIS order:   6

  Memory information:    2523578 words required.
  Fock matrices are constructed from AO integral file.
 @GETMEM-I,  Allocated      19 MB of main memory.
  Initialization and symmetry analysis required      0.001 seconds.

  Adding electric field perturbation to one-electron Hamiltonian.
  Field direction     : Z
  Field strength      : -0.0002000 a.u.

  @INITGES-I, Occupancies from core Hamiltonian:

          Alpha population by irrep:   5    1    1    0
           Beta population by irrep:   5    1    1    0


 total no. of electrons in initial guess :  0.000000000000000E+000
  --------------------------------------------------------------------
  Iteration         Total Energy            Largest Density Difference
  --------------------------------------------------------------------
       0            22.120729778413260              0.0000000000D+00
   current occupation vector 
     5  1  1  0
     5  1  1  0
       1           -91.940764001806485              0.1859370388D+02
   current occupation vector 
     5  1  1  0
     5  1  1  0
       2           -96.884488831989984              0.1858929741D+02
   current occupation vector 
     5  1  1  0
     5  1  1  0
       3          -103.408921547275440              0.1690338726D+02
   current occupation vector 
     5  1  1  0
     5  1  1  0
       4          -100.323385979489913              0.7517066671D+01
   current occupation vector 
     5  1  1  0
     5  1  1  0
       5          -103.230048768068940              0.7033963256D+01
   current occupation vector 
     5  1  1  0
     5  1  1  0
       6          -100.221395198358195              0.5828508819D+01
   current occupation vector 
     5  1  1  0
     5  1  1  0
       7          -103.093286288133243              0.5667880093D+01
   current occupation vector 
     5  1  1  0
     5  1  1  0
       8          -100.022061481782387              0.5656061258D+01
   current occupation vector 
     5  1  1  0
     5  1  1  0
       9          -110.677364276293602              0.4260171734D+01
   current occupation vector 
     5  1  1  0
     5  1  1  0
      10          -112.232317125422853              0.9244903262D+00
   current occupation vector 
     5  1  1  0
     5  1  1  0
      11          -112.766860370533848              0.5188310501D+00
   current occupation vector 
     5  1  1  0
     5  1  1  0
      12          -112.785125019462143              0.1155647890D+00
   current occupation vector 
     5  1  1  0
     5  1  1  0
      13          -112.785643001459292              0.2693074742D-01
   current occupation vector 
     5  1  1  0
     5  1  1  0
      14          -112.785741465936738              0.1482040475D-01
   current occupation vector 
     5  1  1  0
     5  1  1  0
      15          -112.785747490822146              0.4891311375D-02
   current occupation vector 
     5  1  1  0
     5  1  1  0
      16          -112.785747553280331              0.4361663720D-03
   current occupation vector 
     5  1  1  0
     5  1  1  0
      17          -112.785747555000128              0.4774931561D-04
   current occupation vector 
     5  1  1  0
     5  1  1  0
      18          -112.785747555046399              0.9061519150D-05
   current occupation vector 
     5  1  1  0
     5  1  1  0
      19          -112.785747555049525              0.1730124867D-05
   current occupation vector 
     5  1  1  0
     5  1  1  0
      20          -112.785747555048843              0.3316006723D-06
   current occupation vector 
     5  1  1  0
     5  1  1  0
      21          -112.785747555049610              0.4355640471D-07
   current occupation vector 
     5  1  1  0
     5  1  1  0
      22          -112.785747555049042              0.1093477886D-07
   current occupation vector 
     5  1  1  0
     5  1  1  0
      23          -112.785747555048985              0.6094934113D-08
   current occupation vector 
     5  1  1  0
     5  1  1  0
      24          -112.785747555049184              0.2408811484D-09
   current occupation vector 
     5  1  1  0
     5  1  1  0

  SCF has converged.

 Density matrix saved to file den.dat
 total electron number:   14.0000000000000     
     E(SCF)=      -112.785747555048360              0.9940936962D-10

  Eigenvector printing suppressed.

 @PUTMOS-I, Writing converged MOs to NEWMOS. 
 @PUTMOS-I, Symmetry   1 Full Blocks 21 Partial Blocksize   2
 @PUTMOS-I, Symmetry   2 Full Blocks 13 Partial Blocksize   0
 @PUTMOS-I, Symmetry   3 Full Blocks 13 Partial Blocksize   0
 @PUTMOS-I, Symmetry   4 Full Blocks  7 Partial Blocksize   0
 @PUTFOCK-I, Writing converged Fock matrix to NEWFOCK. 
 @PUTFOCK-I, Symmetry   1 Full Blocks 21 Partial Blocksize   2
 @PUTFOCK-I, Symmetry   2 Full Blocks 13 Partial Blocksize   0
 @PUTFOCK-I, Symmetry   3 Full Blocks 13 Partial Blocksize   0
 @PUTFOCK-I, Symmetry   4 Full Blocks  7 Partial Blocksize   0


 
  ORBITAL EIGENVALUES (ALPHA)  (1H = 27.2113834 eV)

       MO #        E(hartree)               E(eV)           FULLSYM    COMPSYM
       ----   --------------------   --------------------   -------   ---------
    1     1         -20.6660187181        -562.3509586903     SG+        A1 (1)
    2     2         -11.3695136408        -309.3801947502     SG+        A1 (1)
    3     3          -1.5080144061         -41.0351581763     SG+        A1 (1)
    4     4          -0.8029236352         -21.8486628778     SG+        A1 (1)
    5   139          -0.6317639675         -17.1911715373      PI        B2 (3)
    6    87          -0.6317639675         -17.1911715373      PI        B1 (2)
    7     5          -0.5574164222         -15.1680719769     SG+        A1 (1)
  +++++++++++++++++++++++++++++++++++++++++++++++++++++++++++++++++++++++++++++
    8     6           0.0608568542           1.6559991920     SG+        A1 (1)
    9    88           0.0616505997           1.6775981042      PI        B1 (2)
   10   140           0.0616505997           1.6775981042      PI        B2 (3)
   11     7           0.0733104124           1.9948777403     SG+        A1 (1)
   12   141           0.1362442265           3.7073938823      PI        B2 (3)
   13    89           0.1362442265           3.7073938823      PI        B1 (2)
   14     8           0.1567228014           4.2646442373     SG+        A1 (1)
   15   142           0.1664687375           4.5298446411      PI        B2 (3)
   16    90           0.1664687375           4.5298446411      PI        B1 (2)
   17   191           0.2275626249           6.1922938325      DE        A2 (4)
   18     9           0.2275626249           6.1922938325      DE        A1 (1)
   19    10           0.2282237548           6.2102840924     SG+        A1 (1)
   20    11           0.3007746752           8.1844950030     SG+        A1 (1)
   21   143           0.3181499966           8.6573015361      PI        B2 (3)
   22    91           0.3181499966           8.6573015361      PI        B1 (2)
   23    12           0.3904796011          10.6254901364     SG+        A1 (1)
   24   144           0.3954934965          10.7619251661      PI        B2 (3)
   25    92           0.3954934965          10.7619251661      PI        B1 (2)
   26    13           0.5087370321          13.8434384303     SG+        A1 (1)
   27   192           0.5359906009          14.5850457387      DE        A2 (4)
   28    14           0.5359906009          14.5850457387      DE        A1 (1)
   29    93           0.6239973562          16.9798312991      PI        B1 (2)
   30   145           0.6239973562          16.9798312991      PI        B2 (3)
   31    15           0.6392096618          17.3937791795     SG+        A1 (1)
   32    94           0.7481332517          20.3577407451      PH        B1 (2)
   33   146           0.7481332517          20.3577407451      PH        B2 (3)
   34   193           0.7675574772          20.8863007927      DE        A2 (4)
   35    16           0.7675574772          20.8863007927      DE        A1 (1)
   36    17           0.7794273533          21.2092965422     SG+        A1 (1)
   37   147           0.8205784180          22.3290739408      PI        B2 (3)
   38    95           0.8205784180          22.3290739408      PI        B1 (2)
   39    18           0.8710517821          23.7025240033     SG+        A1 (1)
   40   148           0.8825690531          24.0159248810      PI        B2 (3)
   41    96           0.8825690531          24.0159248811      PI        B1 (2)
   42   194           0.8896529814          24.2086883708      DE        A2 (4)
   43    19           0.8896529814          24.2086883708      DE        A1 (1)
   44    20           0.9000147008          24.4906450899     SG+        A1 (1)
   45   149           1.0720468498          29.1718778519      PI        B2 (3)
   46    97           1.0720468498          29.1718778519      PI        B1 (2)
   47    21           1.1811425740          32.1405234308     SG+        A1 (1)
   48    98           1.4461607325          39.3520341495      PH        B1 (2)
   49   150           1.4461607325          39.3520341495      PH        B2 (3)
   50    22           1.4662027796          39.8974059786     SG+        A1 (1)
   51   195           1.5209182184          41.3862887596      DE        A2 (4)
   52    23           1.5209182184          41.3862887596      DE        A1 (1)
   53    99           1.5569675189          42.3672400978      PI        B1 (2)
   54   151           1.5569675189          42.3672400978      PI        B2 (3)
   55    24           1.6678992649          45.3858463708     SG+        A1 (1)
   56   196           1.7665113938          48.0692188161      DE        A2 (4)
   57    25           1.7665113938          48.0692188161      DE        A1 (1)
   58    26           1.7772794217          48.3622317530     SG+        A1 (1)
   59   152           1.7900407840          48.7094860745      PI        B2 (3)
   60   100           1.7900407840          48.7094860745      PI        B1 (2)
   61   153           1.9774113860          53.8080993648      PI        B2 (3)
   62   101           1.9774113860          53.8080993649      PI        B1 (2)
   63   197           2.1040857438          57.2550838804      PI        A2 (4)
   64    27           2.1040857438          57.2550838804      PI        A1 (1)
   65    28           2.1229122675          57.7673796351     SG+        A1 (1)
   66   198           2.1917160278          59.6396251360      DE        A2 (4)
   67    29           2.1917160278          59.6396251360      DE        A1 (1)
   68   102           2.2499750348          61.2249333124      PH        B1 (2)
   69   154           2.2499750348          61.2249333124      PH        B2 (3)
   70    30           2.3137227285          62.9595962470     SG+        A1 (1)
   71   155           2.3205942382          63.1465795308      PI        B2 (3)
   72   103           2.3205942382          63.1465795308      PI        B1 (2)
   73   156           2.3556530270          64.1005776744      PH        B2 (3)
   74   104           2.3556530270          64.1005776744      PH        B1 (2)
   75    31           2.3610238256          64.2467245336      DE        A1 (1)
   76   199           2.3610238256          64.2467245337      DE        A2 (4)
   77    32           2.4831569331          67.5701353496     SG+        A1 (1)
   78   157           2.5936852638          70.5777641331      PI        B2 (3)
   79   105           2.5936852638          70.5777641331      PI        B1 (2)
   80   158           2.8136534906          76.5634038885      PI        B2 (3)
   81   106           2.8136534906          76.5634038885      PI        B1 (2)
   82    33           2.9146175476          79.3107755528     SG+        A1 (1)
   83   200           2.9923599768          81.4262545998      DE        A2 (4)
   84    34           2.9923599768          81.4262546001      DE        A1 (1)
   85    35           3.4796724831          94.6867020434     SG+        A1 (1)
   86    36           3.7202241961         101.2324469350      PI        A1 (1)
   87   201           3.7202241961         101.2324469350      PI        A2 (4)
   88   159           3.7441606435         101.8837907825      PI        B2 (3)
   89   107           3.7441606435         101.8837907826      PI        B1 (2)
   90    37           3.9400646762         107.2146105250     SG+        A1 (1)
   91   160           4.0844361540         111.1431581597      PH        B2 (3)
   92   108           4.0844361540         111.1431581597      PH        B1 (2)
   93   202           4.1780504314         113.6905321521      DE        A2 (4)
   94    38           4.1780504314         113.6905321521      DE        A1 (1)
   95   161           4.2095278215         114.5470754842      PI        B2 (3)
   96   109           4.2095278215         114.5470754842      PI        B1 (2)
   97   110           4.2627002292         115.9939702566      PH        B1 (2)
   98   162           4.2627002292         115.9939702566      PH        B2 (3)
   99    39           4.2662476312         116.0904999724     SG+        A1 (1)
  100   203           4.3731036482         118.9982000196      DE        A2 (4)
  101    40           4.3731036482         118.9982000196      DE        A1 (1)
  102    41           4.5037166872         122.5523614999     SG+        A1 (1)
  103   163           4.7691583186         129.7753955033      PI        B2 (3)
  104   111           4.7691583186         129.7753955035      PI        B1 (2)
  105    42           5.0396638921         137.1362263745     SG+        A1 (1)
  106   164           5.0996549009         138.7686647172      PI        B2 (3)
  107   112           5.0996549009         138.7686647172      PI        B1 (2)
  108   204           5.1395250694         139.8535871573      DE        A2 (4)
  109    43           5.1395250694         139.8535871574      DE        A1 (1)
  110    44           5.7809744652         157.3083125980     SG+        A1 (1)
  111   165           5.7932183593         157.6414858940      PI        B2 (3)
  112   113           5.7932183593         157.6414858941      PI        B1 (2)
  113   205           5.8978497908         160.4886518937      PI        A2 (4)
  114    45           5.8978497908         160.4886518937      PI        A1 (1)
  115   166           6.1170227834         166.4526522250      PH        B2 (3)
  116   114           6.1170227834         166.4526522250      PH        B1 (2)
  117    46           6.2353408709         169.6722510683     SG+        A1 (1)
  118   206           6.2990566069         171.4060443886      DE        A2 (4)
  119    47           6.2990566069         171.4060443886      DE        A1 (1)
  120   167           6.3225238402         172.0446202706      PI        B2 (3)
  121   115           6.3225238402         172.0446202707      PI        B1 (2)
  122   168           6.4395934297         175.2302457565      PH        B2 (3)
  123   116           6.4395934297         175.2302457565      PH        B1 (2)
  124   207           6.5807445013         179.0711616811      DE        A2 (4)
  125    48           6.5807445013         179.0711616814      DE        A1 (1)
  126    49           7.0112983554         190.7871276799     SG+        A1 (1)
  127    50           7.2751389475         197.9665951881      DE        A1 (1)
  128   208           7.2751389475         197.9665951881      DE        A2 (4)
  129   169           7.4459482195         202.6145517776      PI        B2 (3)
  130   117           7.4459482195         202.6145517776      PI        B1 (2)
  131    51           7.7625228019         211.2289841148     SG+        A1 (1)
  132    52           8.2055842680         223.2852995386     SG+        A1 (1)
  133   170           8.4274152525         229.3216275064      PI        B2 (3)
  134   118           8.4274152525         229.3216275065      PI        B1 (2)
  135   171          10.1222226823         275.4396822678      PI        B2 (3)
  136   119          10.1222226823         275.4396822679      PI        B1 (2)
  137    53          10.5658307273         287.5108708609     SG+        A1 (1)
  138   209          10.6027605300         288.5157818802      PI        A2 (4)
  139    54          10.6027605300         288.5157818802      PI        A1 (1)
  140   172          10.8690441421         295.7617273427      PH        B2 (3)
  141   120          10.8690441421         295.7617273427      PH        B1 (2)
  142   210          11.1175102605         302.5228341506      DE        A2 (4)
  143    55          11.1175102605         302.5228341507      DE        A1 (1)
  144    56          11.1298777265         302.8593700107     SG+        A1 (1)
  145   173          11.3620849773         309.1780505397      PI        B2 (3)
  146   121          11.3620849773         309.1780505397      PI        B1 (2)
  147    57          11.5441741572         314.1329490286     SG+        A1 (1)
  148   174          11.8548017743         322.5855562106      PH        B2 (3)
  149   122          11.8548017743         322.5855562106      PH        B1 (2)
  150   211          12.2724224279         333.9495919325      DE        A2 (4)
  151    58          12.2724224279         333.9495919325      DE        A1 (1)
  152   175          12.6166852761         343.3174602845      PI        B2 (3)
  153   123          12.6166852761         343.3174602846      PI        B1 (2)
  154   212          12.8646891574         350.0659889842      DE        A2 (4)
  155    59          12.8646891574         350.0659889842      DE        A1 (1)
  156    60          13.2438018316         360.3821693122     SG+        A1 (1)
  157   176          14.0775601427         383.0698863796      PI        B2 (3)
  158   124          14.0775601427         383.0698863796      PI        B1 (2)
  159    61          15.4813356055         421.2685587055     SG+        A1 (1)
  160    62          18.0208378866         490.3719289207     SG+        A1 (1)
  161   177          19.3755351858         527.2351165211      PI        B2 (3)
  162   125          19.3755351858         527.2351165212      PI        B1 (2)
  163    63          20.6242590495         561.2146203367     SG+        A1 (1)
  164   213          26.5183792825         721.6017858019      DE        A2 (4)
  165    64          26.5183792825         721.6017858020      DE        A1 (1)
  166   178          26.9863004425         734.3345678878      PI        B2 (3)
  167   126          26.9863004425         734.3345678878      PI        B1 (2)
  168    65          28.1561702520         766.1683438034     SG+        A1 (1)
  169   127          33.7888093908         919.4402469623      PI        B1 (2)
  170   179          33.7888093908         919.4402469625      PI        B2 (3)
  171    66          34.9591318443         951.2863399472     SG+        A1 (1)
  172    67          36.7523640470        1000.0826689398     SG+        A1 (1)
  173   214          47.1179200349        1282.1437870810      DE        A2 (4)
  174    68          47.1179200349        1282.1437870811      DE        A1 (1)
  175   180          47.6720333692        1297.2219774661      PI        B2 (3)
  176   128          47.6720333692        1297.2219774662      PI        B1 (2)
  177    69          48.5376342705        1320.7761754644     SG+        A1 (1)
  178    70          64.2033416579        1747.0617454151     SG+        A1 (1)
  179   129          66.8247751148        1818.3945762685      PI        B1 (2)
  180   181          66.8247751148        1818.3945762685      PI        B2 (3)
  181    71          67.7948511017        1844.7916858753     SG+        A1 (1)
  182   182          98.6670738046        2684.8675742523      PH        B2 (3)
  183   130          98.6670738046        2684.8675742523      PH        B1 (2)
  184    72          98.6883394875        2685.4462429035      DE        A1 (1)
  185   215          98.6883394875        2685.4462429035      DE        A2 (4)
  186   183          98.7538480450        2687.2288213787      PI        B2 (3)
  187   131          98.7538480450        2687.2288213787      PI        B1 (2)
  188    73          98.7658595946        2687.5556722593     SG+        A1 (1)
  189   184         103.2834280200        2810.4849587182      PH        B2 (3)
  190   132         103.2834280200        2810.4849587182      PH        B1 (2)
  191   216         103.3316276854        2811.7965382936      DE        A2 (4)
  192    74         103.3316276855        2811.7965382960      DE        A1 (1)
  193   133         103.3595190172        2812.5555000174      PI        B1 (2)
  194   185         103.3595190172        2812.5555000174      PI        B2 (3)
  195    75         103.4167504557        2814.1128466326     SG+        A1 (1)
  196    76         115.1753187719        3134.0797573181      DE        A1 (1)
  197   217         115.1753187719        3134.0797573181      DE        A2 (4)
  198   134         115.4040754861        3140.3045439760      PI        B1 (2)
  199   186         115.4040754861        3140.3045439760      PI        B2 (3)
  200    77         116.0009018040        3156.5450137333     SG+        A1 (1)
  201   135         117.0386840294        3184.7845037553      PI        B1 (2)
  202   187         117.0386840294        3184.7845037557      PI        B2 (3)
  203    78         118.0080756862        3211.1629917944     SG+        A1 (1)
  204    79         122.8801934477        3343.7400561722     SG+        A1 (1)
  205   218         198.5760407997        5403.5287802548      DE        A2 (4)
  206    80         198.5760407997        5403.5287802550      DE        A1 (1)
  207   136         198.8755601641        5411.6791165145      PI        B1 (2)
  208   188         198.8755601641        5411.6791165149      PI        B2 (3)
  209    81         199.3076392523        5423.4365862427     SG+        A1 (1)
  210    82         216.6824832360        5896.2301273987     SG+        A1 (1)
  211   189         225.2398586909        6129.0881518011      PI        B2 (3)
  212   137         225.2398586909        6129.0881518012      PI        B1 (2)
  213    83         226.0357029357        6150.7441746712     SG+        A1 (1)
  214   138         395.4970049875       10762.0206362657      PI        B1 (2)
  215   190         395.4970049875       10762.0206362659      PI        B2 (3)
  216    84         396.3015762395       10783.9141330766     SG+        A1 (1)
  217    85         509.4246120495       13862.1484318755     SG+        A1 (1)
  218    86         895.5121538190       24368.1245569297     SG+        A1 (1)


  VSCF finished.

 @CHECKOUT-I, Total execution time (CPU/WALL):       46.21/      13.12 seconds.
--executable xvscf finished with status     0 in       13.15 seconds (walltime).
 --invoking executable--
/nfs/workspaces/public/cfour_mpi/bin/xvtran
 @GETMEM-I,  Allocated    3814 MB of main memory.
  Full RHF integral transformation
  Transformation of IIII integrals :
  1 pass through the AO integral file was required.
     4587106 AO integrals were read.
     8823047 MO integrals were written to HF2.
  Transformation of IIJJ integrals :
  1 pass through the AO integral file was required.
    10378887 AO integrals were read.
    14629740 MO integrals were written to HF2.
  Transformation of IJIJ integrals :
  1 pass through the AO integral file was required.
    19695621 AO integrals were read.
    27490022 MO integrals were written to HF2.
  Transformation of IJKL integrals :
  1 pass through the AO integral file was required.
    14572675 AO integrals were read.
    18585408 MO integrals were written to HF2.
  Summary of active molecular orbitals: 
------------------------------------------------------------------------
 
  Index      Eigenvalue    Symmetry    Index      Eigenvalue    Symmetry
------------------------------------------------------------------------
     1       -20.6660187        1       110         4.2095278        2
     2       -11.3695136        1       111         4.2627002        2
     3        -1.5080144        1       112         4.7691583        2
     4        -0.8029236        1       113         5.0996549        2
     5        -0.5574164        1       114         5.7932184        2
     6        -0.6317640        2       115         6.1170228        2
     7        -0.6317640        3       116         6.3225238        2
     8         0.0608569        1       117         6.4395934        2
     9         0.0733104        1       118         7.4459482        2
    10         0.1567228        1       119         8.4274153        2
    11         0.2275626        1       120        10.1222227        2
    12         0.2282238        1       121        10.8690441        2
    13         0.3007747        1       122        11.3620850        2
    14         0.3904796        1       123        11.8548018        2
    15         0.5087370        1       124        12.6166853        2
    16         0.5359906        1       125        14.0775601        2
    17         0.6392097        1       126        19.3755352        2
    18         0.7675575        1       127        26.9863004        2
    19         0.7794274        1       128        33.7888094        2
    20         0.8710518        1       129        47.6720334        2
    21         0.8896530        1       130        66.8247751        2
    22         0.9000147        1       131        98.6670738        2
    23         1.1811426        1       132        98.7538480        2
    24         1.4662028        1       133       103.2834280        2
    25         1.5209182        1       134       103.3595190        2
    26         1.6678993        1       135       115.4040755        2
    27         1.7665114        1       136       117.0386840        2
    28         1.7772794        1       137       198.8755602        2
    29         2.1040857        1       138       225.2398587        2
    30         2.1229123        1       139       395.4970050        2
    31         2.1917160        1       140         0.0616506        3
    32         2.3137227        1       141         0.1362442        3
    33         2.3610238        1       142         0.1664687        3
    34         2.4831569        1       143         0.3181500        3
    35         2.9146175        1       144         0.3954935        3
    36         2.9923600        1       145         0.6239974        3
    37         3.4796725        1       146         0.7481333        3
    38         3.7202242        1       147         0.8205784        3
    39         3.9400647        1       148         0.8825691        3
    40         4.1780504        1       149         1.0720468        3
    41         4.2662476        1       150         1.4461607        3
    42         4.3731036        1       151         1.5569675        3
    43         4.5037167        1       152         1.7900408        3
    44         5.0396639        1       153         1.9774114        3
    45         5.1395251        1       154         2.2499750        3
    46         5.7809745        1       155         2.3205942        3
    47         5.8978498        1       156         2.3556530        3
    48         6.2353409        1       157         2.5936853        3
    49         6.2990566        1       158         2.8136535        3
    50         6.5807445        1       159         3.7441606        3
    51         7.0112984        1       160         4.0844362        3
    52         7.2751389        1       161         4.2095278        3
    53         7.7625228        1       162         4.2627002        3
    54         8.2055843        1       163         4.7691583        3
    55        10.5658307        1       164         5.0996549        3
    56        10.6027605        1       165         5.7932184        3
    57        11.1175103        1       166         6.1170228        3
    58        11.1298777        1       167         6.3225238        3
    59        11.5441742        1       168         6.4395934        3
    60        12.2724224        1       169         7.4459482        3
    61        12.8646892        1       170         8.4274153        3
    62        13.2438018        1       171        10.1222227        3
    63        15.4813356        1       172        10.8690441        3
    64        18.0208379        1       173        11.3620850        3
    65        20.6242590        1       174        11.8548018        3
    66        26.5183793        1       175        12.6166853        3
    67        28.1561703        1       176        14.0775601        3
    68        34.9591318        1       177        19.3755352        3
    69        36.7523640        1       178        26.9863004        3
    70        47.1179200        1       179        33.7888094        3
    71        48.5376343        1       180        47.6720334        3
    72        64.2033417        1       181        66.8247751        3
    73        67.7948511        1       182        98.6670738        3
    74        98.6883395        1       183        98.7538480        3
    75        98.7658596        1       184       103.2834280        3
    76       103.3316277        1       185       103.3595190        3
    77       103.4167505        1       186       115.4040755        3
    78       115.1753188        1       187       117.0386840        3
    79       116.0009018        1       188       198.8755602        3
    80       118.0080757        1       189       225.2398587        3
    81       122.8801934        1       190       395.4970050        3
    82       198.5760408        1       191         0.2275626        4
    83       199.3076393        1       192         0.5359906        4
    84       216.6824832        1       193         0.7675575        4
    85       226.0357029        1       194         0.8896530        4
    86       396.3015762        1       195         1.5209182        4
    87       509.4246120        1       196         1.7665114        4
    88       895.5121538        1       197         2.1040857        4
    89         0.0616506        2       198         2.1917160        4
    90         0.1362442        2       199         2.3610238        4
    91         0.1664687        2       200         2.9923600        4
    92         0.3181500        2       201         3.7202242        4
    93         0.3954935        2       202         4.1780504        4
    94         0.6239974        2       203         4.3731036        4
    95         0.7481333        2       204         5.1395251        4
    96         0.8205784        2       205         5.8978498        4
    97         0.8825691        2       206         6.2990566        4
    98         1.0720468        2       207         6.5807445        4
    99         1.4461607        2       208         7.2751389        4
   100         1.5569675        2       209        10.6027605        4
   101         1.7900408        2       210        11.1175103        4
   102         1.9774114        2       211        12.2724224        4
   103         2.2499750        2       212        12.8646892        4
   104         2.3205942        2       213        26.5183793        4
   105         2.3556530        2       214        47.1179200        4
   106         2.5936853        2       215        98.6883395        4
   107         2.8136535        2       216       103.3316277        4
   108         3.7441606        2       217       115.1753188        4
   109         4.0844362        2       218       198.5760408        4
------------------------------------------------------------------------
  -20.6660187181201       -11.3695136407585       -1.50801440607055     
 -0.802923635179778      -0.557416422161827      -0.631763967474530     
 -0.631763967474586       6.085685419395775E-002  7.331041244781736E-002
  0.156722801431439       0.227562624858252       0.228223754784070     
  0.300774675168452       0.390479601137981       0.508737032101961     
  0.535990600856960       0.639209661772316       0.767557477165155     
  0.779427353266984       0.871051782076070       0.889652981437064     
  0.900014700828450        1.18114257398465        1.46620277962761     
   1.52091821835248        1.66789926493700        1.76651139376227     
   1.77727942170878        2.10408574377895        2.12291226748493     
   2.19171602778398        2.31372272851901        2.36102382555239     
   2.48315693312309        2.91461754762371        2.99235997682057     
   3.47967248307637        3.72022419613491        3.94006467620436     
   4.17805043135446        4.26624763121673        4.37310364821915     
   4.50371668718412        5.03966389207727        5.13952506940253     
   5.78097446519535        5.89784979082282        6.23534087091907     
   6.29905660689837        6.58074450126665        7.01129835537486     
   7.27513894747653        7.76252280194048        8.20558426803776     
   10.5658307273303        10.6027605299993        11.1175102604550     
   11.1298777264909        11.5441741572256        12.2724224279062     
   12.8646891574147        13.2438018315614        15.4813356055080     
   18.0208378865711        20.6242590494925        26.5183792824735     
   28.1561702520203        34.9591318443284        36.7523640470199     
   47.1179200349346        48.5376342705322        64.2033416579285     
   67.7948511017363        98.6883394874930        98.7658595946036     
   103.331627685491        103.416750455716        115.175318771854     
   116.000901803958        118.008075686236        122.880193447723     
[...]
 Convergence information after     9 iterations: 
 Largest element of residual vector : -0.95645383E-05.
 Largest element of DIIS residual   : -0.49761221E-05.
 Convergence information after    10 iterations: 
 Largest element of residual vector :  0.57731220E-05.
 Largest element of DIIS residual   :  0.39166207E-05.
 Convergence information after    11 iterations: 
 Largest element of residual vector :  0.23200263E-05.
 Largest element of DIIS residual   :  0.79879599E-06.
 Convergence information after    12 iterations: 
 Largest element of residual vector :  0.95664309E-06.
 Largest element of DIIS residual   :  0.44248401E-06.
 Convergence information after    13 iterations: 
 Largest element of residual vector :  0.34114498E-06.
 Largest element of DIIS residual   :  0.21666943E-06.
 Convergence information after    14 iterations: 
 Largest element of residual vector :  0.17533171E-06.
 Largest element of DIIS residual   :  0.89419837E-07.
 Perturbed amplitude equations converged in    14 iterations.
  Dominant contributions to perturbed wavefunction:
    7    7  141   28   0.2292701633 ABAB
    7    7   28  141   0.2292701633 ABAB
    7    7  141   37   0.2076795134 ABAB
    7    7   37  141   0.2076795134 ABAB
    7    7  141   55   0.1782819545 ABAB
    7    7   55  141   0.1782819545 ABAB
    7    7  141   53  -0.1513730769 ABAB
    7    7   53  141  -0.1513730769 ABAB
    7    6   28   90   0.1504077663 ABAB
    6    7   90   28   0.1504077663 ABAB
    7    7  141   39   0.1441853470 ABAB
    7    7   39  141   0.1441853470 ABAB
    5    5  141   44   0.1440777600 ABAB
    5    5   44  141   0.1440777600 ABAB
    7    7  141   44   0.1434055297 ABAB
    7    7   44  141   0.1434055297 ABAB
    7    7  142   28   0.1417534064 ABAB
    7    7   28  142   0.1417534064 ABAB
    7    6   37   90   0.1365685143 ABAB
    6    7   90   37   0.1365685143 ABAB
  norm of converged amps    2.39784003275329     
 Starting iterative solution of the perturbed Lambda equations.
 The DIIS procedure is used to accelerate convergence.
 Convergence criterion is 10**(-7).
 Maximum number of iterations is 100.
 Convergence information after     1 iterations: 
 Largest element of residual vector : -0.67685174E-01.
 Largest element of DIIS residual   : -0.67685174E-01.
 Convergence information after     2 iterations: 
 Largest element of residual vector :  0.79346019E-02.
 Largest element of DIIS residual   :  0.50191320E-02.
 Convergence information after     3 iterations: 
 Largest element of residual vector : -0.46519017E-02.
 Largest element of DIIS residual   : -0.40559085E-02.
 Convergence information after     4 iterations: 
 Largest element of residual vector : -0.28820234E-02.
 Largest element of DIIS residual   : -0.22921935E-02.
 Convergence information after     5 iterations: 
 Largest element of residual vector : -0.17130570E-02.
 Largest element of DIIS residual   : -0.80739297E-03.
 Convergence information after     6 iterations: 
 Largest element of residual vector : -0.56258189E-03.
 Largest element of DIIS residual   :  0.13386841E-03.
 Convergence information after     7 iterations: 
 Largest element of residual vector : -0.11346606E-03.
 Largest element of DIIS residual   : -0.48373772E-04.
 Convergence information after     8 iterations: 
 Largest element of residual vector : -0.22360171E-04.
 Largest element of DIIS residual   :  0.21629056E-04.
 Convergence information after     9 iterations: 
 Largest element of residual vector : -0.76395338E-05.
 Largest element of DIIS residual   : -0.48868925E-05.
 Convergence information after    10 iterations: 
 Largest element of residual vector :  0.46068110E-05.
 Largest element of DIIS residual   :  0.33592383E-05.
 Convergence information after    11 iterations: 
 Largest element of residual vector :  0.18041684E-05.
 Largest element of DIIS residual   :  0.76226814E-06.
 Convergence information after    12 iterations: 
 Largest element of residual vector :  0.85490096E-06.
 Largest element of DIIS residual   :  0.56378726E-06.
 Convergence information after    13 iterations: 
 Largest element of residual vector :  0.42121864E-06.
 Largest element of DIIS residual   :  0.31058303E-06.
 Convergence information after    14 iterations: 
 Largest element of residual vector :  0.24442820E-06.
 Largest element of DIIS residual   :  0.12179528E-06.
 Convergence information after    15 iterations: 
 Largest element of residual vector :  0.83900974E-07.
 Largest element of DIIS residual   :  0.38609318E-07.
 Perturbed Lambda equations converged in    15 iterations.
  Dominant contributions to perturbed wavefunction:
    7    7  141   28   0.2156757030 ABAB
    7    7   28  141   0.2156757030 ABAB
    7    7  141   37   0.1964843625 ABAB
    7    7   37  141   0.1964843625 ABAB
    7    7  141   55   0.1660952201 ABAB
    7    7   55  141   0.1660952201 ABAB
    7    7  141   53  -0.1419502769 ABAB
    7    7   53  141  -0.1419502769 ABAB
    7    6   28   90   0.1394383608 ABAB
    6    7   90   28   0.1394383608 ABAB
    5    5  141   44   0.1381930973 ABAB
    5    5   44  141   0.1381930973 ABAB
    7    7  142   28   0.1351217773 ABAB
    7    7   28  142   0.1351217773 ABAB
    7    7  141   39   0.1343442899 ABAB
    7    7   39  141   0.1343442899 ABAB
    7    7  141   44   0.1319631025 ABAB
    7    7   44  141   0.1319631025 ABAB
    7    6   37   90   0.1275849515 ABAB
    6    7   90   37   0.1275849515 ABAB
        The DBOC first-order density matrix is being calculated 
             (Symmetry block 3, perturbation   2)
 term   6.72197518458199     
 final tnorm  0.884898392258510     
  norm contr. I: |<0|L dT/dx|0>|^2   0.000000000000000E+000
  norm contr. II: <0|[nabla(1+L)e-T][nabla e^T]|0>   6.72197518458199     
  total norm contribution   6.72197518458199     
 oo  1.027174252304480E-002
 vv  -44.8452402109047     
 vo  3.792232755079989E-002
  Correlated perturbed 1-el contribution to DBOC  -44.7970461408309       cm**-1
  SUM_I |dc_I/dx|^2 contribution to DBOC   22.4876874564441       cm**-1
 
 
  The total diagonal Born-Oppenheimer correction (DBOC) is:      0.0038703930 a.u.
  The total diagonal Born-Oppenheimer correction (DBOC) is:        849.453067 cm-1
 
 Total CC energy including DBOC  -113.280479196917     
 First-order density matrix is being calculated  (Symmetry block 3, perturbation   2)
 Calculation of the contributions of <pq||rs> to dI(i,j)/dx required   3.4 seconds.
 Calculation of the contributions of <pq||rs> to dI(a,b)/dx required  16.2 seconds.
 Calculation of the contributions of <pq||rs> to dI(i,a)/dx required   9.7 seconds.
 First-order Z-vector equations are solved for 1 perturbation.
 Convergence reached after  18 iterations.
        U*G(pq,rs) contribution is being calculated
             (Symmetry block 3, perturbation   2)

 CCSD contribution to force constants 

        0.0000000000        0.0000000000        0.0000000000
        0.0000000000        0.0000000000        0.0000000000
        0.0000000000        0.0000000000        0.0000000000
        0.0000000000        0.0000000000        0.0000000000
        0.0000000000        0.0000000000        0.0000000000
        0.0000000000        0.0000000000        0.0000000000
        0.0000000000        0.0000000000        0.0000000000
        0.0000000000        0.0000000000        0.0000000000
        0.0000000000        0.0000000000        0.0000000000
        0.0000000000        0.0000000000        0.0000000000
        0.0000000000        0.0000000000        0.0000000000
        0.0000000000       -1.0184359424        1.0184359424

 CCSD contribution to dipole derivatives 

        0.0000000000        0.0000000000        0.0000000000
        0.0000000000        0.0000000000        0.0000000000
        0.0000000000        0.0000000000        0.0000000000
        0.0000000000        0.0000000000       -0.0453127262
        0.0000000000        0.0000000000        0.0000000000
        0.0000000000        0.0000000000        0.0000000000
 @CHECKOUT-I, Total execution time (CPU/WALL):     1221.45/     495.32 seconds.
--executable xsdcc finished with status     0 in      495.52 seconds (walltime).
 --invoking executable--
/nfs/workspaces/public/cfour_mpi/bin/xanti
 @GETMEM-I,  Allocated    3814 MB of main memory.
 CCSD MO derivative gammas will be sorted to Mulliken order.
 @CHECKOUT-I, Total execution time (CPU/WALL):       12.22/      28.99 seconds.
--executable xanti finished with status     0 in       29.14 seconds (walltime).
 --invoking executable--
/nfs/workspaces/public/cfour_mpi/bin/xbcktrn
 @GETMEM-I,  Allocated    3814 MB of main memory.
 CCSD MO derivative gammas will be transformed to the AO basis.
 @CHECKOUT-I, Total execution time (CPU/WALL):       23.98/       4.04 seconds.
--executable xbcktrn finished with status     0 in        4.10 seconds (walltime).
 --invoking executable--
/nfs/workspaces/public/cfour_mpi/bin/xvdint
 @GETMEM-I,  Allocated    3814 MB of main memory.
 One- and two-electron integral derivatives are calculated
 for RHF-CC/MBPT hessians and dipole derivatives.
 Spherical gaussians are used.
  magnet F F
                    8722  records have been written to the Sort file.
  Total length of Sort file :             178609116  words.
 Evaluation of 2el integral derivatives

                      Two-electron integral gradient
                      ------------------------------

                         C #1 z     0.0000000000
                         O #2 z     0.0000000000


 C #1       0.0000000000           -0.5783264090            0.0000000000
 O #2       0.0000000000            0.5783264090            0.0000000000


 Evaluation of 2e integral derivatives required  362.55 seconds.
  contribution to Hessian
        0.0000000000        0.0000000000        0.0000000000
        0.0000000000       -0.5783264090        0.5783264090
 @CHECKOUT-I, Total execution time (CPU/WALL):      362.54/      79.00 seconds.
--executable xvdint finished with status     0 in       79.16 seconds (walltime).
 --invoking executable--
/nfs/workspaces/public/cfour_mpi/bin/xanti
 @GETMEM-I,  Allocated    3814 MB of main memory.
 CCSD MO gammas will be sorted to Mulliken order.
 @CHECKOUT-I, Total execution time (CPU/WALL):       17.21/      60.06 seconds.
--executable xanti finished with status     0 in       60.19 seconds (walltime).
 --invoking executable--
/nfs/workspaces/public/cfour_mpi/bin/xbcktrn
 @GETMEM-I,  Allocated    3814 MB of main memory.
 CCSD MO gammas will be transformed to the AO basis.
 @CHECKOUT-I, Total execution time (CPU/WALL):       51.68/       9.33 seconds.
--executable xbcktrn finished with status     0 in        9.40 seconds (walltime).
 --invoking executable--
/nfs/workspaces/public/cfour_mpi/bin/xvdint
 @GETMEM-I,  Allocated    3814 MB of main memory.
 One- and two-electron integral derivatives are calculated
 for RHF-CC/MBPT hessians and dipole derivatives.
 Spherical gaussians are used.
  magnet F F

                     Kinetic energy integral gradient
                     --------------------------------

                         C #1 z    -1.4459940472
                         O #2 z     1.4459940472


 C #1       0.0000000000            0.0000000000           -1.4459940472
 O #2       0.0000000000            0.0000000000            1.4459940472



                   Nuclear attraction integral gradient
                   ------------------------------------

                         C #1 z    23.1502220257
                         O #2 z   -23.1502220257


 C #1       0.0000000000            0.0000000000           23.1502220257
 O #2       0.0000000000            0.0000000000          -23.1502220257



                      Reorthonormalization gradient
                      -----------------------------

                         C #1 z     0.0000000000
                         O #2 z     0.0000000000


 C #1       0.0000000000            0.0000000000            0.0000000000
 O #2       0.0000000000            0.0000000000            0.0000000000



                     Kinetic energy integral Hessian
                     -------------------------------


           Symmetry 1

           C #1 z      O #2 z

 C #1 z    1.098308
 O #2 z   -1.098308    1.098308


           Symmetry 2

           C #1 x      O #2 x

 C #1 x   -1.867773
 O #2 x    1.867773   -1.867773


           Symmetry 3

           C #1 y      O #2 y

 C #1 y   -1.867773
 O #2 y    1.867773   -1.867773




           C #1 x      C #1 y      C #1 z      O #2 x      O #2 y      O #2 z

 C #1 x   -1.867773
 C #1 y    0.000000   -1.867773
 C #1 z    0.000000    0.000000    1.098308

 O #2 x    1.867773    0.000000    0.000000   -1.867773
 O #2 y    0.000000    1.867773    0.000000    0.000000   -1.867773
 O #2 z    0.000000    0.000000   -1.098308    0.000000    0.000000    1.098308




                   Nuclear attraction integral Hessian
                   -----------------------------------


           Symmetry 1

           C #1 z      O #2 z

 C #1 z  -13.228542
 O #2 z   13.228542  -13.228542


           Symmetry 2

           C #1 x      O #2 x

 C #1 x   20.206997
 O #2 x  -20.206997   20.206997


           Symmetry 3

           C #1 y      O #2 y

 C #1 y   20.206997
 O #2 y  -20.206997   20.206997




           C #1 x      C #1 y      C #1 z      O #2 x      O #2 y      O #2 z

 C #1 x   20.206997
 C #1 y    0.000000   20.206997
 C #1 z    0.000000    0.000000  -13.228542

 O #2 x  -20.206997    0.000000    0.000000   20.206997
 O #2 y    0.000000  -20.206997    0.000000    0.000000   20.206997
 O #2 z    0.000000    0.000000   13.228542    0.000000    0.000000  -13.228542




                Highest order reorthonormalization Hessian
                ------------------------------------------


           Symmetry 1

           C #1 z      O #2 z

 C #1 z    0.000000
 O #2 z    0.000000    0.000000


           Symmetry 2

           C #1 x      O #2 x

 C #1 x    0.000000
 O #2 x    0.000000    0.000000


           Symmetry 3

           C #1 y      O #2 y

 C #1 y    0.000000
 O #2 y    0.000000    0.000000




           C #1 x      C #1 y      C #1 z      O #2 x      O #2 y      O #2 z




                Electronic contributions to dipole moment
                -----------------------------------------

                               au             Debye

                    z     -0.89545418     -2.27601790

  Conversion factor used: 1 a.u. =   2.54174691 Debye 



   Electronic contributions to static part of dipole moment derivatives
   --------------------------------------------------------------------


                     Total dipole moment derivatives
                     -------------------------------


           Symmetry 1
                              Ez

               C #1 z    -5.70311227
               O #2 z    -8.29688773

           Symmetry 2
                              Ex

               C #1 x    -5.78643723
               O #2 x    -8.21356277

           Symmetry 3
                              Ey

               C #1 y    -5.78643723
               O #2 y    -8.21356277



                       Ex          Ey          Ez

      C #1    x   -5.786437    0.000000    0.000000
      C #1    y    0.000000   -5.786437    0.000000
      C #1    z    0.000000    0.000000   -5.703112

      O #2    x   -8.213563    0.000000    0.000000
      O #2    y    0.000000   -8.213563    0.000000
      O #2    z    0.000000    0.000000   -8.296888

 Evaluation of 1e integral derivatives required    1.60 seconds.
                    8815  records have been written to the Sort file.
  Total length of Sort file :             180513570  words.
 Evaluation of 2el integral derivatives

                      Two-electron integral gradient
                      ------------------------------

                         C #1 z   -11.0114326313
                         O #2 z    11.0114326313


 C #1       0.0000000000            0.0000000000          -11.0114326313
 O #2       0.0000000000            0.0000000000           11.0114326313


 Evaluation of 2e integral derivatives required  731.91 seconds.

                            Molecular gradient
                            ------------------

                         C #1 z     0.4986493283
                         O #2 z    -0.4986493283


 C #1       0.0000000000            0.0000000000            0.4986493283
 O #2       0.0000000000            0.0000000000           -0.4986493283


  Molecular gradient norm 0.705E+00

                            Molecular hessian
                            -----------------


           Symmetry 1

           C #1 z      O #2 z

 C #1 z   62.611228
 O #2 z  -62.611228   62.611228


           Symmetry 2

           C #1 x      O #2 x

 C #1 x    1.736369
 O #2 x   -1.736369    1.736369


           Symmetry 3

           C #1 y      O #2 y

 C #1 y    1.736369
 O #2 y   -1.736369    1.736369




           C #1 x      C #1 y      C #1 z      O #2 x      O #2 y      O #2 z

 C #1 x    1.736369
 C #1 y    0.000000    1.736369
 C #1 z    0.000000    0.000000   62.611228

 O #2 x   -1.736369    0.000000    0.000000    1.736369
 O #2 y    0.000000   -1.736369    0.000000    0.000000    1.736369
 O #2 z    0.000000    0.000000  -62.611228    0.000000    0.000000   62.611228




                           Total dipole moment
                           -------------------

                               au             Debye

                    z     -0.02782338     -0.07071998

  Conversion factor used: 1 a.u. =   2.54174691 Debye 



                     Total dipole moment derivatives
                     -------------------------------


           Symmetry 1
                              Ez

               C #1 z     0.71432199
               O #2 z    -0.71432199

           Symmetry 2
                              Ex

               C #1 x    -0.01349191
               O #2 x     0.01349191

           Symmetry 3
                              Ey

               C #1 y    -0.01349191
               O #2 y     0.01349191



                       Ex          Ey          Ez

      C #1    x   -0.013492    0.000000    0.000000
      C #1    y    0.000000   -0.013492    0.000000
      C #1    z    0.000000    0.000000    0.714322

      O #2    x    0.013492    0.000000    0.000000
      O #2    y    0.000000    0.013492    0.000000
      O #2    z    0.000000    0.000000   -0.714322

 @CHECKOUT-I, Total execution time (CPU/WALL):      733.50/     125.17 seconds.
--executable xvdint finished with status     0 in      125.33 seconds (walltime).
 --invoking executable--
/nfs/workspaces/public/cfour_mpi/bin/xjoda
  @GTFLGS-I, Hessian will be transformed to curvilinear coordinates.
  @GTFLGS-I, Hessian will be transformed to curvilinear coordinates.
  igrd and ihes are                      0                     1
  gradient from JOBARC 
   0.000000000000000   0.000000000000000   0.498649328265762
   0.000000000000000   0.000000000000000  -0.498649328265762
 
  @PROJFCM-I, Projecting force constant matrix onto totally symmetric subspace.
  Largest difference between matrix elements of symmetrized
  and unsymmetrized FCM :     0.7273159852E-10.
  read isotopes from ZMAT file 
 
  Summary of diagonal Born-Oppenheimer correction at the correlated level
  The total diagonal Born-Oppenheimer correction (DBOC) is:      0.0038703930 a.u.
  The total diagonal Born-Oppenheimer correction (DBOC) is:        849.453067 cm-1
  The total diagonal Born-Oppenheimer correction (DBOC) is:            10.162 kJ/mole
  hellooooooo 
  readis is  F
 
 @CHECKOUT-I, Total execution time (CPU/WALL):        0.02/       0.10 seconds.
--executable xjoda finished with status     0 in        0.15 seconds (walltime).
  The final electronic energy is      -113.280479196917099 a.u. 
  This computation required                         4435.15 seconds (walltime).
