 --invoking executable--
/nfs/workspaces/public/cfour_mpi/bin/xjoda


   *************************************************************************
         <<<     CCCCCC     CCCCCC   |||     CCCCCC     CCCCCC   >>>
       <<<      CCC        CCC       |||    CCC        CCC         >>>
      <<<      CCC        CCC        |||   CCC        CCC            >>>
    <<<        CCC        CCC        |||   CCC        CCC              >>>
      <<<      CCC        CCC        |||   CCC        CCC            >>>
       <<<      CCC        CCC       |||    CCC        CCC         >>>
         <<<     CCCCCC     CCCCCC   |||     CCCCCC     CCCCCC   >>>
   *************************************************************************

     ****************************************************************
     * CFOUR Coupled-Cluster techniques for Computational Chemistry *
     ****************************************************************
 

   Department of Chemistry                Institut fuer Physikalische Chemie
   University of Florida                  Universitaet Mainz
   Gainesville, FL 32611, USA             D-55099 Mainz, Germany

   Department of Chemistry                Fakultaet fuer Chemie und Biowiss.
   Johns Hopkins University               Karlsruher Institut fuer Technologie
   Baltimore, MD 21218, USA               D-76131 Karlsruhe, Germany

   Department of Chemistry                Department of Physical Chemistry
   Southern Methodist University          Eotvos Lorand University
   Dallas, TX 75275, USA                  H-1053 Budapest, Hungary

 
                       Version 2.1
 
                     vincent.theory.phys.ucl.ac.uk                     
                     Mon  3 Mar 10:49:42 GMT 2025                      
                     integer*8 version is running
 
********************************************************************************
*                          Input from ZMAT file                                *
********************************************************************************
Carbon Monoxide DBOC calculation                                                
C                                                                               
O 1 r                                                                           
                                                                                
r=1.6137931034482758                                                            
                                                                                
                                                                                
*CFOUR(CALC=CCSD,BASIS=AUG-PCVQZ,SCF_CONV=10                                    
CC_CONV=14,DBOC=ON,MEMORY=500000000                                             
ZFIELD=200)                                                                     
                                                                                
%isotopes                                                                       
12                                                                              
18                                                                              
********************************************************************************
  @GTFLGS-I, Hessian will be transformed to curvilinear coordinates.
    -------------------------------------------------------------------
                    CFOUR Control Parameters 
    -------------------------------------------------------------------
        External           Internal           Value            Units
          Name               Name
    -------------------------------------------------------------------
       ABCDTYPE             IABCDT         STANDARD    [  0]    ***   
       ANHARMONIC           IANHAR         OFF         [  0]    ***   
       ANH_ALGORIT          IANALG         STANDARD    [  0]    ***   
       ANH_DERIVAT          IANDER         SECOND      [  1]    ***   
       ANH_MODE             ANHMOD         VIBRATION   [  0]    ***   
       ANH_STEPSIZ          ICUBST             50000          x 10-6  
       ANH_SYMMETR          IANHSM         ABELIAN     [  0]    ***   
       AO_LADDERS           IAOLAD         SINGLEPASS  [  1]    ***   
       AV_SCF               IAVSCF         OFF         [  0]    ***   
       BASIS                IBASIS         AUG-PCVQZ   [ 52]    ***   
       BOTHVECTORS          BOTHVC         OFF         [  0]    ***   
       BOX_POTENT           IPIAB          OFF         [  0]    ***   
       BREIT                IBREIT         OFF         [  0]    ***   
       BRUCK_CONV           IBRTOL          10D-  4             ***   
       BRUECKNER            IBRKNR         OFF         [  0]    ***   
       BUFFERSIZE           IBUFFS              4096            ***   
       CACHE_RECS           ICHREC             10               ***   
       CALCLEVEL            ICLLVL         CCSD        [ 10]    ***   
       CCORBOPT             ICCORB         OFF         [  0]  x 0.01  
       CC_CONV              ICCCNV          10D- 14             ***   
       CC_EXPORDER          ICCEOR              5               ***   
       CC_EXTRAPOL          ICCEXT         DIIS        [  1]    ***   
       CC_GUESS             ICCGES         MP2         [  0]    ***   
       CC_MAXCYC            ICCCYC            100              cycles 
       CC_PROGRAM           ICCPRO         VCC         [  0]    ***   
       CHARGE               ICHRGE              0               ***   
       CHOLESKY             ICHOLE         OFF         [  0]    ***   
       CIS_CONV             ICISTL              5               ***   
       COMM_SIZE            IPSIZE            ***               ***   
       CONSTANT             ICONST         OLD         [  1]    ***   
       CONTINUUM            ICONTU         NONE        [  0]    ***   
       CONTRACTION          ICNTYP         GENERAL     [  1]    ***   
       COORDINATES          ICOORD         INTERNAL    [  0]    ***   
       CPHF_CONVER          ICPHFT          10D- 16             ***   
       CPHF_MAXCYC          ICPHFC             64              cycles 
       CUBIC                ICUBIC         OFF         [  0]    ***   
       CURVILINEAR          ICURVY         ON          [  1]    ***   
       DBOC                 IDBOC          ON          [  1]    ***   
       DCT                  IDCT           OFF         [  0]    ***   
       DERIV_LEV            IDRLVL         SECOND      [  2]    ***   
       DEVMEM_SIZE          IDVMEM          50000000           MByte  
       DIAG_MRCC            IEOMST          10D-  0             ***   
       DIFF_TYPE            IDIFTY         RELAXED     [  0]    ***   
       DIRECT               IDIRCT         OFF         [  0]    ***   
       DROPMO               IDRPMO      NONE         
       ECP                  IECP           OFF         [  0]    ***   
       EIGENVECTOR          IVEC                1               ***   
       EL_ANHARM            IELANH         OFF         [  0]    ***   
       EOMFOLLOW            IEOMSR         ENERGY      [  0]    ***   
       EOMIP                IEOMIP         OFF         [  0]    ***   
       EOMLEVEL             HBARFM         SAME        [  0]    ***   
       EOM_MRCC             IMRCCE         NEW         [  1]    ***   
       EOM_NONIT            EOMNON         OFF         [  0]    ***   
       EOM_NSING            IEOMSI          10D-  0             ***   
       EOM_NSTATES          IMRCCD         DAVIDSON    [  0]    ***   
       EOM_NTRIP            IEOMTR          10D-  0             ***   
       EOM_ORDER            IEXORD         ENERGY      [  0]    ***   
       EOM_PROPSTA          IEOMST              0               ***   
       ESTATE_CONV          IEXTOL          10D-  5             ***   
       ESTATE_DIAG          IEXDIG         ITERATIVE   [  0]    ***   
       ESTATE_LOCK          IESLOC         ON          [  1]    ***   
       ESTATE_MAXC          IEXMXC             40               ***   
       ESTATE_PROP          IEXPRP         OFF         [  0]    ***   
       EVAL_HESS            IRECAL              0            # of cyc.
       EXCITATION           IEXCIT              0               ***   
       EXCITE               IEXCIT         NONE        [  0]    ***   
       EXTERN_POT           IEXPOT         OFF         [  0]    ***   
       FCGRADNEW            IFCGNW         OFF         [  0]    ***   
       FC_FIELD             IFINFC              0             x 10-6  
       FD_CALTYPE           IFDCAL         GRADONLY    [  0]    ***   
       FD_PROJECT           IFDPRJ         OFF         [  1]    ***   
       FD_STEPSIZE          IDISFD              0            10-4 bohr
       FD_USEGROUP          IFDGRP         FULL        [  0]    ***   
       FILE_RECSIZ          IFLREC              4096           words  
       FINITE_PERT          IFIPER              0             x 10-6  
       FIXGEOM              IFIXGM         OFF         [  0]    ***   
       FOCK                 IFOCK          AO          [  1]    ***   
       FREQ_ALGORI          IVIALG         STANDARD    [  0]    ***   
       FROZEN_CORE          IFROCO         OFF         [  0]    ***   
       GAMMA_ABCD           IGABCD         STORE       [  0]    ***   
       GAMMA_ABCI           IGABCI         STORE       [  0]    ***   
       GENBAS_1             IGNBS1              0               ***   
       GENBAS_2             IGNBS2              0               ***   
       GENBAS_3             IGNBS3              0               ***   
       GENBAS_4             IGNBS4              0               ***   
       GEO_CONV             ICONTL              5              H/bohr 
       GEO_MAXCYC           IOPTCY             50               ***   
       GEO_MAXSTEP          IMXSTP            300            millibohr
       GEO_METHOD           INR            SINGLE_POINT[  5]    ***   
       GIAO                 IGIAO          OFF         [  1]    ***   
       GIMIC                IGIMIC         OFF         [  0]    ***   
       GRID                 IGRID          OFF         [  0]    ***   
       GRID_ALGO            IGALGO         SERIAL      [  0]    ***   
       GUESS                IGUESS         MOREAD      [  0]    ***   
       HBAR                 IHBAR          OFF         [  0]    ***   
       HESS_TYPE            IHESTP         SCF         [  0]    ***   
       HF2_FILE             IHF2Fl         USE         [  1]    ***   
       HFSTABILITY          ISTABL         OFF         [  0]    ***   
       INCORE               INCORE         OFF         [  0]    ***   
       INPUT_MRCC           IMRCC          ON          [  1]    ***   
       INTEGRALS            INTTYP         VMOL        [  1]    ***   
       JODA_PRINT           IJPRNT              0               ***   
       KEYWORD_OUT          IDMPKW         NO          [  0]    ***   
       LINDEP_TOL           ILINDP              8               ***   
       LINEQ_CONV           IZTACN          10D-  7           cycles  
       LINEQ_EXPOR          ILMAXD              5               ***   
       LINEQ_MAXCY          ILMAXC            100               ***   
       LINEQ_TYPE           ILTYPE         DIIS        [  1]    ***   
       LOCK_ORBOCC          ILOCOC         OFF         [  0]    ***   
       MEMORY_SIZE          IMEMSZ         500000000           words  
       MEM_UNIT             IMEMU          INTEGERWORDS[  0]    ***   
       MRCC                 IMRCCC         OFF         [  0]    ***   
       MULTIPLICTY          IMULTP              1               ***   
       NACOUPLING           IVCOUP         OFF         [  0]    ***   
       NEGEVAL              IDIE           ABORT       [  0]    ***   
       NEWNORM              INEWNO         OFF         [  0]    ***   
       NON-HF               INONHF         OFF         [  0]    ***   
       NTOP_TAMP            ITOPT2             15               ***   
       NUC_MODEL            INUCMO         POINT       [  0]    ***   
       OCCUPATION           IOCCU   ESTIMATED BY SCF 
       OPEN-SHELL           IOPEN          SPIN-ORBITAL[  0]    ***   
       OPTVIB               IOPTVB         OFF         [  0]    ***   
       ORBITALS             IORBTP         STANDARD    [  0]    ***   
       PARALLEL             IPARAL         ON          [  1]    ***   
       PARA_INT             IPINTS         ON          [  1]    ***   
       PARA_PRINT           IPPRIN              0               ***   
       PERT_ORB             IPTORB         STANDARD    [  0]    ***   
       POINTS               IGRDFD              0               ***   
       PRINT                IPRNT               0               ***   
       PROPS                IPROPS         OFF         [  0]    ***   
       PROP_INTEGR          IINTYP         INTERNAL    [  0]    ***   
       PSI                  IPSI           OFF         [  0]    ***   
       QC_ALG               IQCALG         FLM         [  0]    ***   
       QC_LINALG            IQCLIN         TRIDIAG     [  2]    ***   
       QC_MAXCYC            IQCMAX          10D-100           cycles  
       QC_MAXSCFCY          IQCMSC          10D- 15           cycles  
       QC_RTRUST            IQCRTR          10D-  0           x 10-3  
       QC_SKIPSCF           IQCSKI         OFF         [  0]    ***   
       QC_START             IQCSTA          10D-  1             ***   
       QRHFGUESS            IQGUES         OFF         [  0]    ***   
       QUARTIC              IQUART         OFF         [  0]    ***   
       RAMAN_INT            IRAMIN         OFF         [  0]    ***   
       RAMAN_ORB            IRAMRE         UNRELAXED   [  0]    ***   
       RDO                  IRDOFM         ON          [  1]    ***   
       REDUCE_REPR          REDREP         Ir          [  0]    ***   
       REFERENCE            IREFNC         RHF         [  0]    ***   
       RELATIVIST           IRELAT         OFF         [  0]    ***   
       RELAX_DENS           IRDENS         ON          [  1]    ***   
       RESET_FLAGS          IRESET         OFF         [  0]    ***   
       RESTART_CC           ICCRES         OFF         [  0]    ***   
       ROT_EVEC             ROTVEC              0               ***   
       SAVE_INTS            ISVINT         OFF         [  0]    ***   
       SCALE_ON             ISTCRT              0               ***   
       SCF_CONV             ISCFCV          10D- 10             ***   
       SCF_DAMPING          IDAMP               0             x 10-3  
       SCF_EXPORDE          IRPPOR              6               ***   
       SCF_EXPSTAR          IRPPLS              8               ***   
       SCF_EXTRAPO          IRPP           ON          [  1]    ***   
       SCF_MAXCYC           ISCFCY            150              cycles 
       SCF_NOSTOP           ISCFST         OFF         [  0]    ***   
       SCF_PRINT            ISCFPR              0               ***   
       SCF_PROG             ISCFPR         SCF         [  0]    ***   
       SD_FIELD             IFINSD              0             x 10-6  
       SOPERT               IPERSO         OFF         [  0]    ***   
       SPHERICAL            IDFGHI         ON          [  1]    ***   
       SPINORBIT            ISOCAL         OFF         [  0]    ***   
       SPINROTATIO          ISRCON         OFF         [  0]    ***   
       SPIN_FLIP            ISPFLP         OFF         [  0]    ***   
       SPIN_ORBIT           ISPORB         OFF         [  0]    ***   
       SPIN_SCAL            ISCSMP         OFF         [  0]    ***   
       STEEPSCALE           ISTPSC              1000          x 10-3  
       SUBGROUP             ISUBGP         DEFAULT     [  0]    ***   
       SUBGRPAXIS           ISBXYZ         X           [  0]    ***   
       SYMMETRY             ISYM           ON          [  0]    ***   
       SYM_CHECK            ISYMCK         OVERRIDE    [  1]    ***   
       T3_EXTRAPOL          IT3EXT         OFF         [  0]    ***   
       T4_EXTRAPOL          IT4EXP         OFF         [  0]    ***   
       TAMP_SUM             IEVERY              5               ***   
       TESTSUITE            ITESTS         OFF         [  0]    ***   
       THERMOCH             ITHERM         OFF         [  0]    ***   
       TOL_CHOLESK          ITOLCH          10D-  4             ***   
       TRANGRAD             IRESRM         OFF         [  0]    ***   
       TRANS_INV            ITRAIN         IGNORE      [  1]    ***   
       TREAT_PERT           ITREAT         SIMULTANEOUS[  0]    ***   
       TRIP_ALGORI          ITRALG         NORMAL      [  0]    ***   
       UIJ_THRESHO          IUIJTH              1               ***   
       UNITS                IUNITS         ANGSTROM    [  0]    ***   
       UNOS                 IUNOS          OFF         [  0]    ***   
       UPDATE_HESS          IHUPDT         ON          [  1]    ***   
       VIBPHASE             ISETPH         STANDARD    [  0]    ***   
       VIBRATION            IVIB           ANALYTIC    [  1]    ***   
       VIB_ALGORIT          IGEALG         STANDARD    [  0]    ***   
       VNATORB              IVNORB         OFF         [  0]    ***   
       VTRAN                IVTRAN         FULL/PARTIAL[  0]    ***   
       XFIELD               IXEFLD              0             x 10-6  
       XFORM_TOL            IXFTOL          10D- 11             ***   
       YFIELD               IYEFLD              0             x 10-6  
       ZFIELD               IZEFLD            200             x 10-6  
       ZSCALE_EXP           IZEXPS         OFF         [  0]    ***   
    -------------------------------------------------------------------
   2 entries found in Z-matrix 
   Job Title : Carbon Monoxide DBOC calculation                                                
   There are  1 unique internal coordinates.
   Of these,  0 will be optimized.
   User supplied Z-matrix: 
--------------------------------------------------------------------------------
       SYMBOL    BOND      LENGTH    ANGLE     ANGLE     DIHED     ANGLE
                  TO      (ANGST)    WRT      (DEG)      WRT      (DEG)
--------------------------------------------------------------------------------
        C    
        O          1         r    
                  *Initial values for internal coordinates* 
                      Name             Value
                        r               1.6137931034
--------------------------------------------------------------------------------
  read isotopes from ZMAT file 
   Rotational constants (in cm-1): 
          0.8990346961             0.8990346961
   Rotational constants (in MHz): 
      26952.3859132538         26952.3859132538
********************************************************************************
   The full molecular point group is CXv .
   The largest Abelian subgroup of the full molecular point group is C2v .
   The computational point group is C2v .
********************************************************************************
--------------------------------------------------------------------------------
   Analysis of internal coordinates specified by Z-matrix 
--------------------------------------------------------------------------------
   *The nuclear repulsion energy is   15.739626564102563 a.u.
   *There is   1 degree of freedom within the tot. symm. molecular subspace.
   *Z-matrix requests optimization of   0 coordinates.
   *The optimization is constrained.
   *The following   1 parameters can have non-zero 
    derivatives within the totally symmetric subspace:
             r    [ 1]
   *The following   0 parameters are to be optimized:

   *The following coordinates must be varied in an  unconstrained optimization.
             r    [ 1]
--------------------------------------------------------------------------------


 ----------------------------------------------------------------
         Coordinates used in calculation (QCOMP) 
 ----------------------------------------------------------------
 Z-matrix   Atomic            Coordinates (in bohr)
  Symbol    Number           X              Y              Z
 ----------------------------------------------------------------
     C         6        -0.00000000     0.00000000     1.82974243
     O         8         0.00000000     0.00000000    -1.21988520
 ----------------------------------------------------------------
 
   Interatomic distance matrix (Angstroms) 
 
                 C             O    
                [ 1]        [ 2]
  C    [ 1]     0.00000
  O    [ 2]     1.61379     0.00000
 rotcon2
   Rotational constants (in cm-1): 
          0.8990346961             0.0000000000
   Rotational constants (in MHz): 
      26952.3859132538             0.0000000000
  ECPDATA file not present.   Using default ECPDATA. 
  @GTFLGS-I, Hessian will be transformed to curvilinear coordinates.
  There are  218 basis functions.
 @CHECKOUT-I, Total execution time (CPU/WALL):        0.28/       0.36 seconds.
--executable xjoda finished with status     0 in        0.39 seconds (walltime).
 --invoking executable--
/nfs/workspaces/public/cfour_mpi/bin/xvmol
 SERIAL VERSION OF MOLECULE STARTED
********************************************************************************
                    INPUT FROM MOL FILE
********************************************************************************
INTGRL        1    0    1    0    0    0    0    0    0                         
         *** CFOUR Program System (Release V0.1) ***                            
Carbon Monoxide DBOC calculation                                                
    2    2 X  Y       0.10E-08              0    0                              
   9999.00      3.00                                                            
          6.00000000    1    5    1    1    1    1    1                         
C #1  -0.000000000000000   0.000000000000000   1.829742431287448                
   16    9                                                                      
   33980.0000000000       9.100000000000000E-005 -1.900000000000000E-005        
  0.000000000000000E+000  0.000000000000000E+000  0.000000000000000E+000        
  0.000000000000000E+000  0.000000000000000E+000  0.000000000000000E+000        
  0.000000000000000E+000                                                        
   5089.00000000000       7.040000000000000E-004 -1.510000000000000E-004        
  0.000000000000000E+000  0.000000000000000E+000  0.000000000000000E+000        
  0.000000000000000E+000  0.000000000000000E+000  0.000000000000000E+000        
  0.000000000000000E+000                                                        
   1157.00000000000       3.693000000000000E-003 -7.850000000000000E-004        
  0.000000000000000E+000  0.000000000000000E+000  0.000000000000000E+000        
  0.000000000000000E+000  0.000000000000000E+000  0.000000000000000E+000        
  0.000000000000000E+000                                                        
   326.600000000000       1.536000000000000E-002 -3.324000000000000E-003        
  0.000000000000000E+000  0.000000000000000E+000  0.000000000000000E+000        
  0.000000000000000E+000  0.000000000000000E+000  0.000000000000000E+000        
  0.000000000000000E+000                                                        
   106.100000000000       5.292900000000000E-002 -1.151200000000000E-002        
  0.000000000000000E+000  0.000000000000000E+000  0.000000000000000E+000        
  0.000000000000000E+000  0.000000000000000E+000  0.000000000000000E+000        
  0.000000000000000E+000                                                        
   38.1100000000000       0.147043000000000      -3.416000000000000E-002        
  0.000000000000000E+000  0.000000000000000E+000  0.000000000000000E+000        
  0.000000000000000E+000  0.000000000000000E+000  0.000000000000000E+000        
  0.000000000000000E+000                                                        
   14.7500000000000       0.305631000000000      -7.717300000000001E-002        
  0.000000000000000E+000  0.000000000000000E+000  0.000000000000000E+000        
  0.000000000000000E+000  0.000000000000000E+000  0.000000000000000E+000        
  0.000000000000000E+000                                                        
   6.03500000000000       0.399345000000000      -0.141493000000000             
  0.000000000000000E+000  0.000000000000000E+000  0.000000000000000E+000        
  0.000000000000000E+000  0.000000000000000E+000  0.000000000000000E+000        
  0.000000000000000E+000                                                        
   2.53000000000000       0.217051000000000      -0.118019000000000             
  0.000000000000000E+000  0.000000000000000E+000  0.000000000000000E+000        
  0.000000000000000E+000  0.000000000000000E+000  0.000000000000000E+000        
  0.000000000000000E+000                                                        
  0.735500000000000       1.589400000000000E-002  0.273806000000000             
   1.00000000000000       0.000000000000000E+000  0.000000000000000E+000        
  0.000000000000000E+000  0.000000000000000E+000  0.000000000000000E+000        
  0.000000000000000E+000                                                        
  0.290500000000000      -3.084000000000000E-003  0.586510000000000             
  0.000000000000000E+000   1.00000000000000       0.000000000000000E+000        
  0.000000000000000E+000  0.000000000000000E+000  0.000000000000000E+000        
  0.000000000000000E+000                                                        
  0.111100000000000       9.779999999999999E-004  0.285430000000000             
  0.000000000000000E+000  0.000000000000000E+000   1.00000000000000             
  0.000000000000000E+000  0.000000000000000E+000  0.000000000000000E+000        
  0.000000000000000E+000                                                        
   7.21600000000000       0.000000000000000E+000  0.000000000000000E+000        
  0.000000000000000E+000  0.000000000000000E+000  0.000000000000000E+000        
   1.00000000000000       0.000000000000000E+000  0.000000000000000E+000        
  0.000000000000000E+000                                                        
   19.5700000000000       0.000000000000000E+000  0.000000000000000E+000        
  0.000000000000000E+000  0.000000000000000E+000  0.000000000000000E+000        
  0.000000000000000E+000   1.00000000000000       0.000000000000000E+000        
  0.000000000000000E+000                                                        
   53.0730000000000       0.000000000000000E+000  0.000000000000000E+000        
  0.000000000000000E+000  0.000000000000000E+000  0.000000000000000E+000        
  0.000000000000000E+000  0.000000000000000E+000   1.00000000000000             
  0.000000000000000E+000                                                        
  4.145000000000000E-002  0.000000000000000E+000  0.000000000000000E+000        
  0.000000000000000E+000  0.000000000000000E+000  0.000000000000000E+000        
  0.000000000000000E+000  0.000000000000000E+000  0.000000000000000E+000        
   1.00000000000000                                                             
   10    8                                                                      
   34.5100000000000       5.378000000000000E-003  0.000000000000000E+000        
  0.000000000000000E+000  0.000000000000000E+000  0.000000000000000E+000        
  0.000000000000000E+000  0.000000000000000E+000  0.000000000000000E+000        
   7.91500000000000       3.613200000000000E-002  0.000000000000000E+000        
  0.000000000000000E+000  0.000000000000000E+000  0.000000000000000E+000        
  0.000000000000000E+000  0.000000000000000E+000  0.000000000000000E+000        
   2.36800000000000       0.142493000000000       0.000000000000000E+000        
  0.000000000000000E+000  0.000000000000000E+000  0.000000000000000E+000        
  0.000000000000000E+000  0.000000000000000E+000  0.000000000000000E+000        
  0.813200000000000       0.342150000000000        1.00000000000000             
  0.000000000000000E+000  0.000000000000000E+000  0.000000000000000E+000        
  0.000000000000000E+000  0.000000000000000E+000  0.000000000000000E+000        
  0.289000000000000       0.463864000000000       0.000000000000000E+000        
   1.00000000000000       0.000000000000000E+000  0.000000000000000E+000        
  0.000000000000000E+000  0.000000000000000E+000  0.000000000000000E+000        
  0.100700000000000       0.250028000000000       0.000000000000000E+000        
  0.000000000000000E+000   1.00000000000000       0.000000000000000E+000        
  0.000000000000000E+000  0.000000000000000E+000  0.000000000000000E+000        
   8.18200000000000       0.000000000000000E+000  0.000000000000000E+000        
  0.000000000000000E+000  0.000000000000000E+000   1.00000000000000             
  0.000000000000000E+000  0.000000000000000E+000  0.000000000000000E+000        
   24.1860000000000       0.000000000000000E+000  0.000000000000000E+000        
  0.000000000000000E+000  0.000000000000000E+000  0.000000000000000E+000        
   1.00000000000000       0.000000000000000E+000  0.000000000000000E+000        
   71.4940000000000       0.000000000000000E+000  0.000000000000000E+000        
  0.000000000000000E+000  0.000000000000000E+000  0.000000000000000E+000        
  0.000000000000000E+000   1.00000000000000       0.000000000000000E+000        
  3.218000000000000E-002  0.000000000000000E+000  0.000000000000000E+000        
  0.000000000000000E+000  0.000000000000000E+000  0.000000000000000E+000        
  0.000000000000000E+000  0.000000000000000E+000   1.00000000000000             
    6    6                                                                      
   1.84800000000000        1.00000000000000       0.000000000000000E+000        
  0.000000000000000E+000  0.000000000000000E+000  0.000000000000000E+000        
  0.000000000000000E+000                                                        
  0.649000000000000       0.000000000000000E+000   1.00000000000000             
  0.000000000000000E+000  0.000000000000000E+000  0.000000000000000E+000        
  0.000000000000000E+000                                                        
  0.228000000000000       0.000000000000000E+000  0.000000000000000E+000        
   1.00000000000000       0.000000000000000E+000  0.000000000000000E+000        
  0.000000000000000E+000                                                        
   8.65600000000000       0.000000000000000E+000  0.000000000000000E+000        
  0.000000000000000E+000   1.00000000000000       0.000000000000000E+000        
  0.000000000000000E+000                                                        
   33.2130000000000       0.000000000000000E+000  0.000000000000000E+000        
  0.000000000000000E+000  0.000000000000000E+000   1.00000000000000             
  0.000000000000000E+000                                                        
  7.660000000000000E-002  0.000000000000000E+000  0.000000000000000E+000        
  0.000000000000000E+000  0.000000000000000E+000  0.000000000000000E+000        
   1.00000000000000                                                             
    4    4                                                                      
   1.41900000000000        1.00000000000000       0.000000000000000E+000        
  0.000000000000000E+000  0.000000000000000E+000                                
  0.485000000000000       0.000000000000000E+000   1.00000000000000             
  0.000000000000000E+000  0.000000000000000E+000                                
   24.6940000000000       0.000000000000000E+000  0.000000000000000E+000        
   1.00000000000000       0.000000000000000E+000                                
  0.187000000000000       0.000000000000000E+000  0.000000000000000E+000        
  0.000000000000000E+000   1.00000000000000                                     
    2    2                                                                      
   1.01100000000000        1.00000000000000       0.000000000000000E+000        
  0.424000000000000       0.000000000000000E+000   1.00000000000000             
          8.00000000    1    5    1    1    1    1    1                         
O #2   0.000000000000000   0.000000000000000  -1.219885195169320                
   16    9                                                                      
   61420.0000000000       9.000000000000001E-005 -2.000000000000000E-005        
  0.000000000000000E+000  0.000000000000000E+000  0.000000000000000E+000        
  0.000000000000000E+000  0.000000000000000E+000  0.000000000000000E+000        
  0.000000000000000E+000                                                        
   9199.00000000000       6.980000000000001E-004 -1.590000000000000E-004        
  0.000000000000000E+000  0.000000000000000E+000  0.000000000000000E+000        
  0.000000000000000E+000  0.000000000000000E+000  0.000000000000000E+000        
  0.000000000000000E+000                                                        
   2091.00000000000       3.664000000000000E-003 -8.290000000000000E-004        
  0.000000000000000E+000  0.000000000000000E+000  0.000000000000000E+000        
  0.000000000000000E+000  0.000000000000000E+000  0.000000000000000E+000        
  0.000000000000000E+000                                                        
   590.900000000000       1.521800000000000E-002 -3.508000000000000E-003        
  0.000000000000000E+000  0.000000000000000E+000  0.000000000000000E+000        
  0.000000000000000E+000  0.000000000000000E+000  0.000000000000000E+000        
  0.000000000000000E+000                                                        
   192.300000000000       5.242300000000000E-002 -1.215600000000000E-002        
  0.000000000000000E+000  0.000000000000000E+000  0.000000000000000E+000        
  0.000000000000000E+000  0.000000000000000E+000  0.000000000000000E+000        
  0.000000000000000E+000                                                        
   69.3200000000000       0.145921000000000      -3.626100000000000E-002        
  0.000000000000000E+000  0.000000000000000E+000  0.000000000000000E+000        
  0.000000000000000E+000  0.000000000000000E+000  0.000000000000000E+000        
  0.000000000000000E+000                                                        
   26.9700000000000       0.305258000000000      -8.299200000000000E-002        
  0.000000000000000E+000  0.000000000000000E+000  0.000000000000000E+000        
  0.000000000000000E+000  0.000000000000000E+000  0.000000000000000E+000        
  0.000000000000000E+000                                                        
   11.1000000000000       0.398508000000000      -0.152090000000000             
  0.000000000000000E+000  0.000000000000000E+000  0.000000000000000E+000        
  0.000000000000000E+000  0.000000000000000E+000  0.000000000000000E+000        
  0.000000000000000E+000                                                        
   4.68200000000000       0.216980000000000      -0.115331000000000             
  0.000000000000000E+000  0.000000000000000E+000  0.000000000000000E+000        
  0.000000000000000E+000  0.000000000000000E+000  0.000000000000000E+000        
  0.000000000000000E+000                                                        
   1.42800000000000       1.759400000000000E-002  0.288979000000000             
   1.00000000000000       0.000000000000000E+000  0.000000000000000E+000        
  0.000000000000000E+000  0.000000000000000E+000  0.000000000000000E+000        
  0.000000000000000E+000                                                        
  0.554700000000000      -2.502000000000000E-003  0.586128000000000             
  0.000000000000000E+000   1.00000000000000       0.000000000000000E+000        
  0.000000000000000E+000  0.000000000000000E+000  0.000000000000000E+000        
  0.000000000000000E+000                                                        
  0.206700000000000       9.540000000000000E-004  0.277624000000000             
  0.000000000000000E+000  0.000000000000000E+000   1.00000000000000             
  0.000000000000000E+000  0.000000000000000E+000  0.000000000000000E+000        
  0.000000000000000E+000                                                        
   12.9740000000000       0.000000000000000E+000  0.000000000000000E+000        
  0.000000000000000E+000  0.000000000000000E+000  0.000000000000000E+000        
   1.00000000000000       0.000000000000000E+000  0.000000000000000E+000        
  0.000000000000000E+000                                                        
   34.9000000000000       0.000000000000000E+000  0.000000000000000E+000        
  0.000000000000000E+000  0.000000000000000E+000  0.000000000000000E+000        
  0.000000000000000E+000   1.00000000000000       0.000000000000000E+000        
  0.000000000000000E+000                                                        
   93.8810000000000       0.000000000000000E+000  0.000000000000000E+000        
  0.000000000000000E+000  0.000000000000000E+000  0.000000000000000E+000        
  0.000000000000000E+000  0.000000000000000E+000   1.00000000000000             
  0.000000000000000E+000                                                        
  6.959000000000000E-002  0.000000000000000E+000  0.000000000000000E+000        
  0.000000000000000E+000  0.000000000000000E+000  0.000000000000000E+000        
  0.000000000000000E+000  0.000000000000000E+000  0.000000000000000E+000        
   1.00000000000000                                                             
   10    8                                                                      
   63.4200000000000       6.044000000000000E-003  0.000000000000000E+000        
  0.000000000000000E+000  0.000000000000000E+000  0.000000000000000E+000        
  0.000000000000000E+000  0.000000000000000E+000  0.000000000000000E+000        
   14.6600000000000       4.179900000000000E-002  0.000000000000000E+000        
  0.000000000000000E+000  0.000000000000000E+000  0.000000000000000E+000        
  0.000000000000000E+000  0.000000000000000E+000  0.000000000000000E+000        
   4.45900000000000       0.161143000000000       0.000000000000000E+000        
  0.000000000000000E+000  0.000000000000000E+000  0.000000000000000E+000        
  0.000000000000000E+000  0.000000000000000E+000  0.000000000000000E+000        
   1.53100000000000       0.356731000000000        1.00000000000000             
  0.000000000000000E+000  0.000000000000000E+000  0.000000000000000E+000        
  0.000000000000000E+000  0.000000000000000E+000  0.000000000000000E+000        
  0.530200000000000       0.448309000000000       0.000000000000000E+000        
   1.00000000000000       0.000000000000000E+000  0.000000000000000E+000        
  0.000000000000000E+000  0.000000000000000E+000  0.000000000000000E+000        
  0.175000000000000       0.244940000000000       0.000000000000000E+000        
  0.000000000000000E+000   1.00000000000000       0.000000000000000E+000        
  0.000000000000000E+000  0.000000000000000E+000  0.000000000000000E+000        
   14.4750000000000       0.000000000000000E+000  0.000000000000000E+000        
  0.000000000000000E+000  0.000000000000000E+000   1.00000000000000             
  0.000000000000000E+000  0.000000000000000E+000  0.000000000000000E+000        
   42.7300000000000       0.000000000000000E+000  0.000000000000000E+000        
  0.000000000000000E+000  0.000000000000000E+000  0.000000000000000E+000        
   1.00000000000000       0.000000000000000E+000  0.000000000000000E+000        
   126.140000000000       0.000000000000000E+000  0.000000000000000E+000        
  0.000000000000000E+000  0.000000000000000E+000  0.000000000000000E+000        
  0.000000000000000E+000   1.00000000000000       0.000000000000000E+000        
  5.348000000000000E-002  0.000000000000000E+000  0.000000000000000E+000        
  0.000000000000000E+000  0.000000000000000E+000  0.000000000000000E+000        
  0.000000000000000E+000  0.000000000000000E+000   1.00000000000000             
    6    6                                                                      
   3.77500000000000        1.00000000000000       0.000000000000000E+000        
  0.000000000000000E+000  0.000000000000000E+000  0.000000000000000E+000        
  0.000000000000000E+000                                                        
   1.30000000000000       0.000000000000000E+000   1.00000000000000             
  0.000000000000000E+000  0.000000000000000E+000  0.000000000000000E+000        
  0.000000000000000E+000                                                        
  0.444000000000000       0.000000000000000E+000  0.000000000000000E+000        
   1.00000000000000       0.000000000000000E+000  0.000000000000000E+000        
  0.000000000000000E+000                                                        
   14.9270000000000       0.000000000000000E+000  0.000000000000000E+000        
  0.000000000000000E+000   1.00000000000000       0.000000000000000E+000        
  0.000000000000000E+000                                                        
   57.5440000000000       0.000000000000000E+000  0.000000000000000E+000        
  0.000000000000000E+000  0.000000000000000E+000   1.00000000000000             
  0.000000000000000E+000                                                        
  0.154000000000000       0.000000000000000E+000  0.000000000000000E+000        
  0.000000000000000E+000  0.000000000000000E+000  0.000000000000000E+000        
   1.00000000000000                                                             
    4    4                                                                      
   2.66600000000000        1.00000000000000       0.000000000000000E+000        
  0.000000000000000E+000  0.000000000000000E+000                                
  0.859000000000000       0.000000000000000E+000   1.00000000000000             
  0.000000000000000E+000  0.000000000000000E+000                                
   26.4830000000000       0.000000000000000E+000  0.000000000000000E+000        
   1.00000000000000       0.000000000000000E+000                                
  0.324000000000000       0.000000000000000E+000  0.000000000000000E+000        
  0.000000000000000E+000   1.00000000000000                                     
    2    2                                                                      
   1.84600000000000        1.00000000000000       0.000000000000000E+000        
  0.714000000000000       0.000000000000000E+000   1.00000000000000             
FINISH                                                                          
 
********************************************************************************
 ONE- AND TWO-ELECTRON INTEGRALS OVER SYMMETRY-ADAPTED AOS ARE CALCULATED.

  SPHERICAL HARMONICS ARE USED.
  
  INTEGRALS LESS THAN  0.10E-13 ARE NEGLECTED.

  NUCLEAR REPULSION ENERGY :   15.7396265641 A.U.
  @MOLECU-I, ONE ELECTRON INTEGRALS (CPU/WALL):        0.06/       0.08 SECONDS.
  @TWOEL-I,    4426047 INTEGRALS OF SYMMETRY TYPE  I I I I
  @TWOEL-I,   19100471 INTEGRALS OF SYMMETRY TYPE  I J I J
  @TWOEL-I,   10056884 INTEGRALS OF SYMMETRY TYPE  I I J J
  @TWOEL-I,   14115049 INTEGRALS OF SYMMETRY TYPE  I J K L
  @TWOEL-I, TOTAL NUMBER OF 2-E INTEGRALS   47698451.
  @MOLECU-I, TWO ELECTRON INTEGRALS (CPU/WALL):      234.95/      31.91 SECONDS.
 @CHECKOUT-I, Total execution time (CPU/WALL):      235.04/      32.01 seconds.

Running with 14 threads/proc

--executable xvmol finished with status     0 in       32.09 seconds (walltime).
 --invoking executable--
/nfs/workspaces/public/cfour_mpi/bin/xvmol2ja
 @GETMEM-I,  Allocated    3814 MB of main memory.
 @CHECKOUT-I, Total execution time (CPU/WALL):        0.14/       0.08 seconds.
--executable xvmol2ja finished with status     0 in        0.11 seconds (walltime).
 --invoking executable--
/nfs/workspaces/public/cfour_mpi/bin/xvprop
 @GETMEM-I,  Allocated    3814 MB of main memory.
   Property integrals will be calculated.
    --------------------------------------------------------------
                                   Property evaluated at 
    Property type                X             Y             Z
    --------------------------------------------------------------
    Dipole moment               ----          ----          ----  
    Quadrupole moment           ----          ----          ----  
    Octopole moment             ----          ----          ----  
    Relativisitic corr.         ----          ----          ----  
    Second moment            0.0000000     0.0000000     0.0000000
    Electron density         0.0000000     0.0000000     1.8297424
    Electron density         0.0000000     0.0000000    -1.2198852
    Field gradient           0.0000000     0.0000000     1.8297424
    Field gradient           0.0000000     0.0000000    -1.2198852
    Potential                0.0000000     0.0000000     1.8297424
    Potential                0.0000000     0.0000000    -1.2198852
    --------------------------------------------------------------
 @CHECKOUT-I, Total execution time (CPU/WALL):        1.38/       1.43 seconds.
--executable xvprop finished with status     0 in        1.48 seconds (walltime).
 --invoking executable--
/nfs/workspaces/public/cfour_mpi/bin/xvscf
  There are  218 functions in the AO basis.

  There are 4 irreducible representations.

       Irrep        # of functions
         1                 86
         2                 52
         3                 52
         4                 28


  Parameters for SCF calculation: 
        SCF reference function:  RHF  
  Maximum number of iterations:  150
     Full symmetry point group: CXv 
     Computational point group: C2v 
        Initial density matrix: MOREAD                 
     SCF convergence tolerance: 10**(-10)
  DIIS convergence acceleration:  ON
          Latest start for DIIS:   8
                     DIIS order:   6

  Memory information:    2523578 words required.
  Fock matrices are constructed from AO integral file.
 @GETMEM-I,  Allocated      19 MB of main memory.
  Initialization and symmetry analysis required      0.001 seconds.

  Adding electric field perturbation to one-electron Hamiltonian.
  Field direction     : Z
  Field strength      :  0.0002000 a.u.

  @INITGES-I, Occupancies from core Hamiltonian:

          Alpha population by irrep:   5    1    1    0
           Beta population by irrep:   5    1    1    0


 total no. of electrons in initial guess :  0.000000000000000E+000
  --------------------------------------------------------------------
  Iteration         Total Energy            Largest Density Difference
  --------------------------------------------------------------------
       0            15.739382689497907              0.0000000000D+00
   current occupation vector 
     5  1  1  0
     5  1  1  0
       1           -93.612909320984656              0.1755158362D+02
   current occupation vector 
     5  1  1  0
     5  1  1  0
       2           -97.962156405102348              0.1755156870D+02
   current occupation vector 
     5  1  1  0
     5  1  1  0
       3          -100.322485559117297              0.6733934389D+01
   current occupation vector 
     5  1  1  0
     5  1  1  0
       4           -95.169387386915361              0.6729934258D+01
   current occupation vector 
     5  1  1  0
     5  1  1  0
       5          -100.234778634310587              0.6980724363D+01
   current occupation vector 
     5  1  1  0
     5  1  1  0
       6           -94.979588059760871              0.6981119013D+01
   current occupation vector 
     5  1  1  0
     5  1  1  0
       7          -100.226242585351059              0.6994244678D+01
   current occupation vector 
     5  1  1  0
     5  1  1  0
       8           -94.973710096473397              0.6994269323D+01
   current occupation vector 
     5  1  1  0
     5  1  1  0
       9          -107.422297397121113              0.5881456673D+01
   current occupation vector 
     5  1  1  0
     5  1  1  0
      10          -110.588452922801991              0.1329738190D+01
   current occupation vector 
     5  1  1  0
     5  1  1  0
      11          -112.379336599839107              0.1039135205D+01
   current occupation vector 
     5  1  1  0
     5  1  1  0
      12          -112.503285115516675              0.4935585051D+00
   current occupation vector 
     5  1  1  0
     5  1  1  0
      13          -112.520333706228158              0.1269454450D+00
   current occupation vector 
     5  1  1  0
     5  1  1  0
      14          -112.525495729953533              0.8311694090D-01
   current occupation vector 
     5  1  1  0
     5  1  1  0
      15          -112.525875903748229              0.2411652077D-01
   current occupation vector 
     5  1  1  0
     5  1  1  0
      16          -112.526204930132181              0.3416287961D-01
   current occupation vector 
     5  1  1  0
     5  1  1  0
      17          -112.526331520879936              0.2430294009D-01
   current occupation vector 
     5  1  1  0
     5  1  1  0
      18          -112.526357499491795              0.1436298721D-01
   current occupation vector 
     5  1  1  0
     5  1  1  0
      19          -112.526357728791467              0.1240689077D-02
   current occupation vector 
     5  1  1  0
     5  1  1  0
      20          -112.526357730508479              0.7827004761D-04
   current occupation vector 
     5  1  1  0
     5  1  1  0
      21          -112.526357730612759              0.1493101810D-04
   current occupation vector 
     5  1  1  0
     5  1  1  0
      22          -112.526357730613555              0.2160789113D-05
   current occupation vector 
     5  1  1  0
     5  1  1  0
      23          -112.526357730613498              0.3423288392D-06
   current occupation vector 
     5  1  1  0
     5  1  1  0
      24          -112.526357730614947              0.1734657717D-06
   current occupation vector 
     5  1  1  0
     5  1  1  0
      25          -112.526357730615345              0.4808351717D-08
   current occupation vector 
     5  1  1  0
     5  1  1  0
      26          -112.526357730613867              0.4455298797D-08
   current occupation vector 
     5  1  1  0
     5  1  1  0
      27          -112.526357730613498              0.5281888038D-08
   current occupation vector 
     5  1  1  0
     5  1  1  0
      28          -112.526357730614095              0.1930661409D-08
   current occupation vector 
     5  1  1  0
     5  1  1  0
      29          -112.526357730613697              0.1340518807D-09
   current occupation vector 
     5  1  1  0
     5  1  1  0
      30          -112.526357730615487              0.1211162282D-09
   current occupation vector 
     5  1  1  0
     5  1  1  0
      31          -112.526357730613952              0.1214019996D-09
   current occupation vector 
     5  1  1  0
     5  1  1  0

  SCF has converged.

 Density matrix saved to file den.dat
 total electron number:   13.9999999999999     
     E(SCF)=      -112.526357730613697              0.1169958574D-10

  Eigenvector printing suppressed.

 @PUTMOS-I, Writing converged MOs to NEWMOS. 
 @PUTMOS-I, Symmetry   1 Full Blocks 21 Partial Blocksize   2
 @PUTMOS-I, Symmetry   2 Full Blocks 13 Partial Blocksize   0
 @PUTMOS-I, Symmetry   3 Full Blocks 13 Partial Blocksize   0
 @PUTMOS-I, Symmetry   4 Full Blocks  7 Partial Blocksize   0
 @PUTFOCK-I, Writing converged Fock matrix to NEWFOCK. 
 @PUTFOCK-I, Symmetry   1 Full Blocks 21 Partial Blocksize   2
 @PUTFOCK-I, Symmetry   2 Full Blocks 13 Partial Blocksize   0
 @PUTFOCK-I, Symmetry   3 Full Blocks 13 Partial Blocksize   0
 @PUTFOCK-I, Symmetry   4 Full Blocks  7 Partial Blocksize   0


 
  ORBITAL EIGENVALUES (ALPHA)  (1H = 27.2113834 eV)

       MO #        E(hartree)               E(eV)           FULLSYM    COMPSYM
       ----   --------------------   --------------------   -------   ---------
    1     1         -20.6435378816        -561.7392240289     SG+        A1 (1)
    2     2         -11.5247826596        -313.6052795513     SG+        A1 (1)
    3     3          -1.2721881831         -34.6180004077     SG+        A1 (1)
    4     4          -0.8060413328         -21.9334997420     SG+        A1 (1)
    5     5          -0.5273476065         -14.3498579054     SG+        A1 (1)
    6    87          -0.4950105149         -13.4699209077      PI        B1 (2)
    7   139          -0.4950105149         -13.4699209077      PI        B2 (3)
  +++++++++++++++++++++++++++++++++++++++++++++++++++++++++++++++++++++++++++++
    8    88          -0.0088822150          -0.2416973569      PI        B1 (2)
    9   140          -0.0088822150          -0.2416973569      PI        B2 (3)
   10     6           0.0605338554           1.6472099474     SG+        A1 (1)
   11     7           0.0685362872           1.8649671867     SG+        A1 (1)
   12   141           0.0821029877           2.2341358759      PI        B2 (3)
   13    89           0.0821029877           2.2341358759      PI        B1 (2)
   14     8           0.1565883858           4.2609866014     SG+        A1 (1)
   15   142           0.1798243799           4.8932701454      PI        B2 (3)
   16    90           0.1798243799           4.8932701454      PI        B1 (2)
   17     9           0.1943707915           5.2890981298     SG+        A1 (1)
   18    10           0.2219964411           6.0408302717      DE        A1 (1)
   19   191           0.2219964411           6.0408302717      DE        A2 (4)
   20   143           0.2849136973           7.7528958536      PI        B2 (3)
   21    91           0.2849136973           7.7528958536      PI        B1 (2)
   22    11           0.3010110679           8.1909275749     SG+        A1 (1)
   23    12           0.3087331376           8.4010557762     SG+        A1 (1)
   24   144           0.4058314396          11.0432348991      PI        B2 (3)
   25    92           0.4058314396          11.0432348991      PI        B1 (2)
   26    13           0.4184327468          11.3861338994     SG+        A1 (1)
   27    14           0.5136680843          13.9776191834     SG+        A1 (1)
   28    15           0.5500718222          14.9682152528      DE        A1 (1)
   29   192           0.5500718222          14.9682152528      DE        A2 (4)
   30   145           0.6228297752          16.9480598051      PI        B2 (3)
   31    93           0.6228297752          16.9480598051      PI        B1 (2)
   32    16           0.7034884376          19.1428935943     SG+        A1 (1)
   33    94           0.7309041116          19.8889120086      PH        B1 (2)
   34   146           0.7309041116          19.8889120086      PH        B2 (3)
   35   193           0.7377380097          20.0748718314      DE        A2 (4)
   36    17           0.7377380097          20.0748718314      DE        A1 (1)
   37    95           0.7752088009          21.0945038962      PI        B1 (2)
   38   147           0.7752088009          21.0945038962      PI        B2 (3)
   39    18           0.8178405925          22.2545739231     SG+        A1 (1)
   40    19           0.8577869911          23.3415706905      DE        A1 (1)
   41   194           0.8577869911          23.3415706905      DE        A2 (4)
   42   148           0.8815932052          23.9893707103      PI        B2 (3)
   43    96           0.8815932052          23.9893707103      PI        B1 (2)
   44    20           0.8877179429          24.1560332948     SG+        A1 (1)
   45   149           1.0424094783          28.3654039736      PI        B2 (3)
   46    97           1.0424094783          28.3654039736      PI        B1 (2)
   47    21           1.1358089794          30.9069336081     SG+        A1 (1)
   48    22           1.3558346926          36.8941376460     SG+        A1 (1)
   49    98           1.4203494422          38.6496732331      PH        B1 (2)
   50   150           1.4203494422          38.6496732331      PH        B2 (3)
   51    99           1.4824196621          40.3386897842      PI        B1 (2)
   52   151           1.4824196621          40.3386897842      PI        B2 (3)
   53    23           1.5860843231          43.1595486209      DE        A1 (1)
   54   195           1.5860843231          43.1595486209      DE        A2 (4)
   55    24           1.5873159233          43.1930621670     SG+        A1 (1)
   56   152           1.6387899054          44.5937404273      PI        B2 (3)
   57   100           1.6387899054          44.5937404273      PI        B1 (2)
   58    25           1.6735434419          45.5394322347      DE        A1 (1)
   59   196           1.6735434419          45.5394322347      DE        A2 (4)
   60    26           1.9201719220          52.2505343627     SG+        A1 (1)
   61    27           1.9405332134          52.8045932694     SG+        A1 (1)
   62   153           2.0642736964          56.1717429958      PI        B2 (3)
   63   101           2.0642736964          56.1717429958      PI        B1 (2)
   64   197           2.0661095367          56.2216987504      PI        A2 (4)
   65    28           2.0661095367          56.2216987504      PI        A1 (1)
   66   198           2.1237074152          57.7890167035      DE        A2 (4)
   67    29           2.1237074152          57.7890167035      DE        A1 (1)
   68   102           2.1971711020          59.7880652521      PH        B1 (2)
   69   154           2.1971711020          59.7880652521      PH        B2 (3)
   70   103           2.2077430226          60.0757418367      PH        B1 (2)
   71   155           2.2077430226          60.0757418367      PH        B2 (3)
   72    30           2.2182162138          60.3607318591     SG+        A1 (1)
   73   104           2.2193388932          60.3912815182      PI        B1 (2)
   74   156           2.2193388932          60.3912815182      PI        B2 (3)
   75    31           2.2809744852          62.0684712433      DE        A1 (1)
   76   199           2.2809744852          62.0684712433      DE        A2 (4)
   77    32           2.3887126322          65.0001752686     SG+        A1 (1)
   78   157           2.5027417626          68.1030656546      PI        B2 (3)
   79   105           2.5027417626          68.1030656546      PI        B1 (2)
   80   158           2.5995351253          70.7369469567      PI        B2 (3)
   81   106           2.5995351253          70.7369469567      PI        B1 (2)
   82    33           2.6240381288          71.4037075801      DE        A1 (1)
   83   200           2.6240381288          71.4037075801      DE        A2 (4)
   84    34           2.6432441357          71.9263295965     SG+        A1 (1)
   85    35           2.8945992927          78.7660511436     SG+        A1 (1)
   86   159           3.3656311353          91.5834792066      PI        B2 (3)
   87   107           3.3656311353          91.5834792066      PI        B1 (2)
   88    36           3.7109192158         100.9792455463      PI        A1 (1)
   89   201           3.7109192158         100.9792455463      PI        A2 (4)
   90    37           3.8843870068         105.6995441167     SG+        A1 (1)
   91   108           3.9041959890         106.2385739265      PH        B1 (2)
   92   160           3.9041959890         106.2385739265      PH        B2 (3)
   93    38           4.1033286913         111.6572502363     SG+        A1 (1)
   94   109           4.1411131243         112.6854169281      PH        B1 (2)
   95   161           4.1411131243         112.6854169281      PH        B2 (3)
   96   110           4.1543857101         113.0465823490      PI        B1 (2)
   97   162           4.1543857101         113.0465823490      PI        B2 (3)
   98   202           4.1732551229         113.5600451752      DE        A2 (4)
   99    39           4.1732551229         113.5600451752      DE        A1 (1)
  100   203           4.2974776289         116.9403114126      DE        A2 (4)
  101    40           4.2974776289         116.9403114126      DE        A1 (1)
  102    41           4.3842886767         119.3025601180     SG+        A1 (1)
  103   111           4.5175773825         122.9295301933      PI        B1 (2)
  104   163           4.5175773825         122.9295301933      PI        B2 (3)
  105   204           4.6529571856         126.6134019219      DE        A2 (4)
  106    42           4.6529571856         126.6134019219      DE        A1 (1)
  107    43           4.8044870119         130.7367381220     SG+        A1 (1)
  108   112           5.1293340736         139.5762760647      PI        B1 (2)
  109   164           5.1293340736         139.5762760647      PI        B2 (3)
  110    44           5.1783845088         140.9110062623     SG+        A1 (1)
  111   113           5.3481787780         145.5313432190      PI        B1 (2)
  112   165           5.3481787780         145.5313432190      PI        B2 (3)
  113    45           5.8231766232         158.4566917001      PI        A1 (1)
  114   205           5.8231766232         158.4566917001      PI        A2 (4)
  115   166           5.8941938807         160.3891695223      PH        B2 (3)
  116   114           5.8941938807         160.3891695223      PH        B1 (2)
  117    46           6.0208057258         163.8344529829     SG+        A1 (1)
  118   206           6.0850489076         165.5825988334      DE        A2 (4)
  119    47           6.0850489076         165.5825988334      DE        A1 (1)
  120   115           6.1203158166         166.5422602133      PI        B1 (2)
  121   167           6.1203158166         166.5422602133      PI        B2 (3)
  122    48           6.1743678905         168.0130919208     SG+        A1 (1)
  123   207           6.2925155246         171.2280524901      DE        A2 (4)
  124    49           6.2925155246         171.2280524902      DE        A1 (1)
  125   116           6.3488928136         172.7621565176      PH        B1 (2)
  126   168           6.3488928136         172.7621565176      PH        B2 (3)
  127    50           6.4822330553         176.3905289557      DE        A1 (1)
  128   208           6.4822330553         176.3905289557      DE        A2 (4)
  129   117           6.7642534656         184.0646944681      PI        B1 (2)
  130   169           6.7642534656         184.0646944681      PI        B2 (3)
  131    51           7.0823940346         192.7217394660     SG+        A1 (1)
  132   118           7.1894730767         195.6355083341      PI        B1 (2)
  133   170           7.1894730767         195.6355083341      PI        B2 (3)
  134    52           7.7224470766         210.1384681866     SG+        A1 (1)
  135    53           9.5073923619         258.7092986949     SG+        A1 (1)
  136   119           9.6970087862         263.8690239138      PI        B1 (2)
  137   171           9.6970087862         263.8690239139      PI        B2 (3)
  138    54          10.6600769301         290.0754404181      PI        A1 (1)
  139   209          10.6600769301         290.0754404181      PI        A2 (4)
  140    55          10.6795862439         290.6063158364     SG+        A1 (1)
  141   172          10.7338323998         292.0824287833      PH        B2 (3)
  142   120          10.7338323998         292.0824287833      PH        B1 (2)
  143    56          10.9546196593         298.0903555499      DE        A1 (1)
  144   210          10.9546196593         298.0903555499      DE        A2 (4)
  145   121          10.9783480931         298.7360390590      PI        B1 (2)
  146   173          10.9783480931         298.7360390590      PI        B2 (3)
  147    57          11.1526869196         303.4800397100     SG+        A1 (1)
  148   174          11.8966610181         323.7246041423      PH        B2 (3)
  149   122          11.8966610181         323.7246041423      PH        B1 (2)
  150   211          11.9859626720         326.1546256860      DE        A2 (4)
  151    58          11.9859626720         326.1546256860      DE        A1 (1)
  152   123          12.3116891972         335.0180950463      PI        B1 (2)
  153   175          12.3116891972         335.0180950463      PI        B2 (3)
  154    59          12.5576292178         341.7104632419     SG+        A1 (1)
  155   212          12.7261466218         346.2960549295      DE        A2 (4)
  156    60          12.7261466218         346.2960549295      DE        A1 (1)
  157   176          13.1074077431         356.6706974765      PI        B2 (3)
  158   124          13.1074077431         356.6706974765      PI        B1 (2)
  159    61          13.4575556176         366.1987055361     SG+        A1 (1)
  160    62          17.3134823661         471.1238066518     SG+        A1 (1)
  161   125          18.7047581233         508.9823446972      PI        B1 (2)
  162   177          18.7047581233         508.9823446975      PI        B2 (3)
  163    63          19.5922725759         533.1328407407     SG+        A1 (1)
  164   213          26.2507491112         714.3191986034      DE        A2 (4)
  165    64          26.2507491112         714.3191986034      DE        A1 (1)
  166   178          26.5298788480         721.9147048884      PI        B2 (3)
  167   126          26.5298788480         721.9147048884      PI        B1 (2)
  168    65          26.9869469507         734.3521602716     SG+        A1 (1)
  169   127          33.4038058469         908.9637679187      PI        B1 (2)
  170   179          33.4038058469         908.9637679190      PI        B2 (3)
  171    66          34.2969726756         933.2680729363     SG+        A1 (1)
  172    67          35.5516403987         967.4093173886     SG+        A1 (1)
  173   214          47.0746629302        1280.9667014182      DE        A2 (4)
  174    68          47.0746629302        1280.9667014182      DE        A1 (1)
  175   180          47.2636099217        1286.1082104465      PI        B2 (3)
  176   128          47.2636099217        1286.1082104465      PI        B1 (2)
  177    69          47.4673283052        1291.6516694865     SG+        A1 (1)
  178    70          63.7373921023        1734.3826134116     SG+        A1 (1)
  179   129          66.2918771272        1803.8936848146      PI        B1 (2)
  180   181          66.2918771272        1803.8936848149      PI        B2 (3)
  181    71          66.9473879842        1821.7310420655     SG+        A1 (1)
  182   182          98.5040146832        2680.4305099842      PH        B2 (3)
  183   130          98.5040146832        2680.4305099843      PH        B1 (2)
  184    72          98.5178859494        2680.8079663263      DE        A1 (1)
  185   215          98.5178859494        2680.8079663263      DE        A2 (4)
  186   183          98.5309043920        2681.1622161589      PI        B2 (3)
  187   131          98.5309043920        2681.1622161589      PI        B1 (2)
  188    73          98.5401837131        2681.4147193224     SG+        A1 (1)
  189    74         103.3129171263        2811.2873980963      DE        A1 (1)
  190   216         103.3129171263        2811.2873980975      DE        A2 (4)
  191   132         103.3150451129        2811.3453035562      PH        B1 (2)
  192   184         103.3150451129        2811.3453035562      PH        B2 (3)
  193   185         103.3357703404        2811.9092656663      PI        B2 (3)
  194   133         103.3357703404        2811.9092656663      PI        B1 (2)
  195    75         103.3448190093        2812.1554924650     SG+        A1 (1)
  196   217         114.9548186281        3128.0796433664      DE        A2 (4)
  197    76         114.9548186281        3128.0796433664      DE        A1 (1)
  198   134         115.0907077622        3131.7773746941      PI        B1 (2)
  199   186         115.0907077622        3131.7773746941      PI        B2 (3)
  200    77         115.2982013647        3137.4235626663     SG+        A1 (1)
  201   135         116.7115987519        3175.8840608648      PI        B1 (2)
  202   187         116.7115987519        3175.8840608653      PI        B2 (3)
  203    78         117.4380890763        3195.6528676177     SG+        A1 (1)
  204    79         121.8323954189        3315.2280222832     SG+        A1 (1)
  205   218         198.5572329542        5403.0169927591      DE        A2 (4)
  206    80         198.5572329542        5403.0169927592      DE        A1 (1)
  207   188         198.6602771386        5405.8209675691      PI        B2 (3)
  208   136         198.6602771386        5405.8209675693      PI        B1 (2)
  209    81         198.7650304545        5408.6714502094     SG+        A1 (1)
  210    82         216.2623101155        5884.7966355216     SG+        A1 (1)
  211   137         224.7753794068        6116.4490279187      PI        B1 (2)
  212   189         224.7753794068        6116.4490279189      PI        B2 (3)
  213    83         225.2927939015        6130.5285921108     SG+        A1 (1)
  214   138         395.2466231105       10755.2073990158      PI        B1 (2)
  215   190         395.2466231106       10755.2073990166      PI        B2 (3)
  216    84         395.8108719307       10770.5613899934     SG+        A1 (1)
  217    85         508.5726284098       13838.9647784052     SG+        A1 (1)
  218    86         895.0754624425       24356.2415804559     SG+        A1 (1)


  VSCF finished.

 @CHECKOUT-I, Total execution time (CPU/WALL):       57.26/      13.14 seconds.
--executable xvscf finished with status     0 in       13.19 seconds (walltime).
 --invoking executable--
/nfs/workspaces/public/cfour_mpi/bin/xvtran
 @GETMEM-I,  Allocated    3814 MB of main memory.
  Full RHF integral transformation
  Transformation of IIII integrals :
  1 pass through the AO integral file was required.
     4426047 AO integrals were read.
     8610411 MO integrals were written to HF2.
  Transformation of IIJJ integrals :
  1 pass through the AO integral file was required.
    10056884 AO integrals were read.
    14364598 MO integrals were written to HF2.
  Transformation of IJIJ integrals :
  1 pass through the AO integral file was required.
    19100471 AO integrals were read.
    26699467 MO integrals were written to HF2.
  Transformation of IJKL integrals :
  1 pass through the AO integral file was required.
    14115049 AO integrals were read.
    18072827 MO integrals were written to HF2.
  Summary of active molecular orbitals: 
------------------------------------------------------------------------
 
  Index      Eigenvalue    Symmetry    Index      Eigenvalue    Symmetry
------------------------------------------------------------------------
     1       -20.6435379        1       110         4.1411131        2
     2       -11.5247827        1       111         4.1543857        2
     3        -1.2721882        1       112         4.5175774        2
     4        -0.8060413        1       113         5.1293341        2
     5        -0.5273476        1       114         5.3481788        2
     6        -0.4950105        2       115         5.8941939        2
     7        -0.4950105        3       116         6.1203158        2
     8         0.0605339        1       117         6.3488928        2
     9         0.0685363        1       118         6.7642535        2
    10         0.1565884        1       119         7.1894731        2
    11         0.1943708        1       120         9.6970088        2
    12         0.2219964        1       121        10.7338324        2
    13         0.3010111        1       122        10.9783481        2
    14         0.3087331        1       123        11.8966610        2
    15         0.4184327        1       124        12.3116892        2
    16         0.5136681        1       125        13.1074077        2
    17         0.5500718        1       126        18.7047581        2
    18         0.7034884        1       127        26.5298788        2
    19         0.7377380        1       128        33.4038058        2
    20         0.8178406        1       129        47.2636099        2
    21         0.8577870        1       130        66.2918771        2
    22         0.8877179        1       131        98.5040147        2
    23         1.1358090        1       132        98.5309044        2
    24         1.3558347        1       133       103.3150451        2
    25         1.5860843        1       134       103.3357703        2
    26         1.5873159        1       135       115.0907078        2
    27         1.6735434        1       136       116.7115988        2
    28         1.9201719        1       137       198.6602771        2
    29         1.9405332        1       138       224.7753794        2
    30         2.0661095        1       139       395.2466231        2
    31         2.1237074        1       140        -0.0088822        3
    32         2.2182162        1       141         0.0821030        3
    33         2.2809745        1       142         0.1798244        3
    34         2.3887126        1       143         0.2849137        3
    35         2.6240381        1       144         0.4058314        3
    36         2.6432441        1       145         0.6228298        3
    37         2.8945993        1       146         0.7309041        3
    38         3.7109192        1       147         0.7752088        3
    39         3.8843870        1       148         0.8815932        3
    40         4.1033287        1       149         1.0424095        3
    41         4.1732551        1       150         1.4203494        3
    42         4.2974776        1       151         1.4824197        3
    43         4.3842887        1       152         1.6387899        3
    44         4.6529572        1       153         2.0642737        3
    45         4.8044870        1       154         2.1971711        3
    46         5.1783845        1       155         2.2077430        3
    47         5.8231766        1       156         2.2193389        3
    48         6.0208057        1       157         2.5027418        3
    49         6.0850489        1       158         2.5995351        3
    50         6.1743679        1       159         3.3656311        3
    51         6.2925155        1       160         3.9041960        3
    52         6.4822331        1       161         4.1411131        3
    53         7.0823940        1       162         4.1543857        3
    54         7.7224471        1       163         4.5175774        3
    55         9.5073924        1       164         5.1293341        3
    56        10.6600769        1       165         5.3481788        3
    57        10.6795862        1       166         5.8941939        3
    58        10.9546197        1       167         6.1203158        3
    59        11.1526869        1       168         6.3488928        3
    60        11.9859627        1       169         6.7642535        3
    61        12.5576292        1       170         7.1894731        3
    62        12.7261466        1       171         9.6970088        3
    63        13.4575556        1       172        10.7338324        3
    64        17.3134824        1       173        10.9783481        3
    65        19.5922726        1       174        11.8966610        3
    66        26.2507491        1       175        12.3116892        3
    67        26.9869470        1       176        13.1074077        3
    68        34.2969727        1       177        18.7047581        3
    69        35.5516404        1       178        26.5298788        3
    70        47.0746629        1       179        33.4038058        3
    71        47.4673283        1       180        47.2636099        3
    72        63.7373921        1       181        66.2918771        3
    73        66.9473880        1       182        98.5040147        3
    74        98.5178859        1       183        98.5309044        3
    75        98.5401837        1       184       103.3150451        3
    76       103.3129171        1       185       103.3357703        3
    77       103.3448190        1       186       115.0907078        3
    78       114.9548186        1       187       116.7115988        3
    79       115.2982014        1       188       198.6602771        3
    80       117.4380891        1       189       224.7753794        3
    81       121.8323954        1       190       395.2466231        3
    82       198.5572330        1       191         0.2219964        4
    83       198.7650305        1       192         0.5500718        4
    84       216.2623101        1       193         0.7377380        4
    85       225.2927939        1       194         0.8577870        4
    86       395.8108719        1       195         1.5860843        4
    87       508.5726284        1       196         1.6735434        4
    88       895.0754624        1       197         2.0661095        4
    89        -0.0088822        2       198         2.1237074        4
    90         0.0821030        2       199         2.2809745        4
    91         0.1798244        2       200         2.6240381        4
    92         0.2849137        2       201         3.7109192        4
    93         0.4058314        2       202         4.1732551        4
    94         0.6228298        2       203         4.2974776        4
    95         0.7309041        2       204         4.6529572        4
    96         0.7752088        2       205         5.8231766        4
    97         0.8815932        2       206         6.0850489        4
    98         1.0424095        2       207         6.2925155        4
    99         1.4203494        2       208         6.4822331        4
   100         1.4824197        2       209        10.6600769        4
   101         1.6387899        2       210        10.9546197        4
   102         2.0642737        2       211        11.9859627        4
   103         2.1971711        2       212        12.7261466        4
   104         2.2077430        2       213        26.2507491        4
   105         2.2193389        2       214        47.0746629        4
   106         2.5027418        2       215        98.5178859        4
   107         2.5995351        2       216       103.3129171        4
   108         3.3656311        2       217       114.9548186        4
   109         3.9041960        2       218       198.5572330        4
------------------------------------------------------------------------
  -20.6435378816105       -11.5247826595717       -1.27218818311359     
 -0.806041332759604      -0.527347606493868      -0.495010514889604     
 -0.495010514889589       6.053385538067141E-002  6.853628715885565E-002
  0.156588385777707       0.194370791520148       0.221996441079754     
  0.301011067850246       0.308733137624752       0.418432746765692     
  0.513668084341499       0.550071822249878       0.703488437647142     
  0.737738009725868       0.817840592518893       0.857786991105393     
  0.887717942879581        1.13580897941926        1.35583469255120     
   1.58608432310953        1.58731592334217        1.67354344192257     
   1.92017192197206        1.94053321336761        2.06610953673126     
   2.12370741516742        2.21821621384871        2.28097448523172     
   2.38871263224931        2.62403812884035        2.64324413570721     
   2.89459929272191        3.71091921575281        3.88438700682401     
   4.10332869134232        4.17325512290000        4.29747762888692     
[...]
 Convergence information after    15 iterations: 
 Largest element of residual vector : -0.12471966E-05.
 Largest element of DIIS residual   : -0.67368698E-06.
 Convergence information after    16 iterations: 
 Largest element of residual vector : -0.67909315E-06.
 Largest element of DIIS residual   : -0.24044601E-06.
 Convergence information after    17 iterations: 
 Largest element of residual vector : -0.31007986E-06.
 Largest element of DIIS residual   : -0.14927214E-06.
 Convergence information after    18 iterations: 
 Largest element of residual vector : -0.81537380E-07.
 Largest element of DIIS residual   : -0.30490990E-07.
 Perturbed amplitude equations converged in    18 iterations.
  Dominant contributions to perturbed wavefunction:
    7    7  140   45  -0.2352228237 ABAB
    7    7   45  140  -0.2352228237 ABAB
    7    7  140   22  -0.2192095128 ABAB
    7    7   22  140  -0.2192095128 ABAB
    7    7  140   39  -0.1960309364 ABAB
    7    7   39  140  -0.1960309364 ABAB
    7    0   36    0   0.1857906980 AA  
    7    7  140   28   0.1834301587 ABAB
    7    7   28  140   0.1834301587 ABAB
    7    7  140   57  -0.1592105109 ABAB
    7    7   57  140  -0.1592105109 ABAB
    7    0   45    0   0.1576805469 AA  
    7    7  140   32  -0.1571706179 ABAB
    7    7   32  140  -0.1571706179 ABAB
    7    0   39    0   0.1517557676 AA  
    7    7  140   29  -0.1489748816 ABAB
    7    7   29  140  -0.1489748816 ABAB
    7    0   22    0   0.1483407845 AA  
    7    6   45   89  -0.1467257313 ABAB
    6    7   89   45  -0.1467257313 ABAB
  norm of converged amps    1.64348687151572     
 Starting iterative solution of the perturbed Lambda equations.
 The DIIS procedure is used to accelerate convergence.
 Convergence criterion is 10**(-7).
 Maximum number of iterations is 100.
 Convergence information after     1 iterations: 
 Largest element of residual vector :  0.78362703E-01.
 Largest element of DIIS residual   :  0.78362703E-01.
 Convergence information after     2 iterations: 
 Largest element of residual vector :  0.17062242E-01.
 Largest element of DIIS residual   :  0.13049224E-01.
 Convergence information after     3 iterations: 
 Largest element of residual vector :  0.69357665E-02.
 Largest element of DIIS residual   : -0.62490424E-02.
 Convergence information after     4 iterations: 
 Largest element of residual vector : -0.36974344E-02.
 Largest element of DIIS residual   : -0.33776428E-02.
 Convergence information after     5 iterations: 
 Largest element of residual vector : -0.32832434E-02.
 Largest element of DIIS residual   : -0.26898085E-02.
 Convergence information after     6 iterations: 
 Largest element of residual vector : -0.17605752E-02.
 Largest element of DIIS residual   : -0.78452253E-03.
 Convergence information after     7 iterations: 
 Largest element of residual vector : -0.83178198E-03.
 Largest element of DIIS residual   : -0.41352626E-03.
 Convergence information after     8 iterations: 
 Largest element of residual vector : -0.30070931E-03.
 Largest element of DIIS residual   : -0.18989180E-03.
 Convergence information after     9 iterations: 
 Largest element of residual vector : -0.13151190E-03.
 Largest element of DIIS residual   : -0.74737523E-04.
 Convergence information after    10 iterations: 
 Largest element of residual vector : -0.66016664E-04.
 Largest element of DIIS residual   : -0.32238894E-04.
 Convergence information after    11 iterations: 
 Largest element of residual vector : -0.15849176E-04.
 Largest element of DIIS residual   : -0.64922810E-05.
 Convergence information after    12 iterations: 
 Largest element of residual vector : -0.59264326E-05.
 Largest element of DIIS residual   : -0.36834594E-05.
 Convergence information after    13 iterations: 
 Largest element of residual vector : -0.18397435E-05.
 Largest element of DIIS residual   : -0.16305883E-05.
 Convergence information after    14 iterations: 
 Largest element of residual vector : -0.15532487E-05.
 Largest element of DIIS residual   : -0.98310755E-06.
 Convergence information after    15 iterations: 
 Largest element of residual vector : -0.80584401E-06.
 Largest element of DIIS residual   : -0.43153657E-06.
 Convergence information after    16 iterations: 
 Largest element of residual vector : -0.41893405E-06.
 Largest element of DIIS residual   : -0.14901319E-06.
 Convergence information after    17 iterations: 
 Largest element of residual vector : -0.19406548E-06.
 Largest element of DIIS residual   : -0.92290400E-07.
 Perturbed Lambda equations converged in    17 iterations.
  Dominant contributions to perturbed wavefunction:
    7    7  140   45  -0.1904267886 ABAB
    7    7   45  140  -0.1904267886 ABAB
    7    7  140   22  -0.1766821530 ABAB
    7    7   22  140  -0.1766821530 ABAB
    7    7  140   39  -0.1567437224 ABAB
    7    7   39  140  -0.1567437224 ABAB
    7    7  140   28   0.1505518236 ABAB
    7    7   28  140   0.1505518236 ABAB
    7    7  140   57  -0.1277799747 ABAB
    7    7   57  140  -0.1277799747 ABAB
    7    7  140   32  -0.1273652885 ABAB
    7    7   32  140  -0.1273652885 ABAB
    7    6   45   89  -0.1177836138 ABAB
    6    7   89   45  -0.1177836138 ABAB
    7    7  140   29  -0.1168997901 ABAB
    7    7   29  140  -0.1168997901 ABAB
    7    7  140   54   0.1103017634 ABAB
    7    7   54  140   0.1103017634 ABAB
    7    6   22   89  -0.1084620884 ABAB
    6    7   89   22  -0.1084620884 ABAB
        The DBOC first-order density matrix is being calculated 
             (Symmetry block 3, perturbation   2)
 term   2.82197791665981     
 final tnorm  0.783955885372519     
  norm contr. I: |<0|L dT/dx|0>|^2   0.000000000000000E+000
  norm contr. II: <0|[nabla(1+L)e-T][nabla e^T]|0>   2.82197791665981     
  total norm contribution   2.82197791665981     
 oo  8.598521709800855E-003
 vv  -18.7564278696364     
 vo  5.331499077350788E-002
  Correlated perturbed 1-el contribution to DBOC  -18.6945143571531       cm**-1
  SUM_I |dc_I/dx|^2 contribution to DBOC   9.44064142700033       cm**-1
 
 
  The total diagonal Born-Oppenheimer correction (DBOC) is:      0.0038701029 a.u.
  The total diagonal Born-Oppenheimer correction (DBOC) is:        849.389399 cm-1
 
 Total CC energy including DBOC  -113.071448699337     
 First-order density matrix is being calculated  (Symmetry block 3, perturbation   2)
 Calculation of the contributions of <pq||rs> to dI(i,j)/dx required   2.9 seconds.
 Calculation of the contributions of <pq||rs> to dI(a,b)/dx required  14.6 seconds.
 Calculation of the contributions of <pq||rs> to dI(i,a)/dx required   9.5 seconds.
 First-order Z-vector equations are solved for 1 perturbation.
 Convergence reached after  19 iterations.
        U*G(pq,rs) contribution is being calculated
             (Symmetry block 3, perturbation   2)

 CCSD contribution to force constants 

        0.0000000000        0.0000000000        0.0000000000
        0.0000000000        0.0000000000        0.0000000000
        0.0000000000        0.0000000000        0.0000000000
        0.0000000000        0.0000000000        0.0000000000
        0.0000000000        0.0000000000        0.0000000000
        0.0000000000        0.0000000000        0.0000000000
        0.0000000000        0.0000000000        0.0000000000
        0.0000000000        0.0000000000        0.0000000000
        0.0000000000        0.0000000000        0.0000000000
        0.0000000000        0.0000000000        0.0000000000
        0.0000000000        0.0000000000        0.0000000000
        0.0000000000       -5.1497148991        5.1497148991

 CCSD contribution to dipole derivatives 

        0.0000000000        0.0000000000        0.0000000000
        0.0000000000        0.0000000000        0.0000000000
        0.0000000000        0.0000000000        0.0000000000
        0.0000000000        0.0000000000       -0.0574230805
        0.0000000000        0.0000000000        0.0000000000
        0.0000000000        0.0000000000        0.0000000000
 @CHECKOUT-I, Total execution time (CPU/WALL):     1300.43/     480.16 seconds.
--executable xsdcc finished with status     0 in      480.38 seconds (walltime).
 --invoking executable--
/nfs/workspaces/public/cfour_mpi/bin/xanti
 @GETMEM-I,  Allocated    3814 MB of main memory.
 CCSD MO derivative gammas will be sorted to Mulliken order.
 @CHECKOUT-I, Total execution time (CPU/WALL):       11.53/      24.60 seconds.
--executable xanti finished with status     0 in       24.74 seconds (walltime).
 --invoking executable--
/nfs/workspaces/public/cfour_mpi/bin/xbcktrn
 @GETMEM-I,  Allocated    3814 MB of main memory.
 CCSD MO derivative gammas will be transformed to the AO basis.
 @CHECKOUT-I, Total execution time (CPU/WALL):       26.78/      14.04 seconds.
--executable xbcktrn finished with status     0 in       14.11 seconds (walltime).
 --invoking executable--
/nfs/workspaces/public/cfour_mpi/bin/xvdint
 @GETMEM-I,  Allocated    3814 MB of main memory.
 One- and two-electron integral derivatives are calculated
 for RHF-CC/MBPT hessians and dipole derivatives.
 Spherical gaussians are used.
  magnet F F
                    8722  records have been written to the Sort file.
  Total length of Sort file :             178609116  words.
 Evaluation of 2el integral derivatives

                      Two-electron integral gradient
                      ------------------------------

                         C #1 z     0.0000000000
                         O #2 z     0.0000000000


 C #1       0.0000000000            0.0766987993            0.0000000000
 O #2       0.0000000000           -0.0766987993            0.0000000000


 Evaluation of 2e integral derivatives required  302.12 seconds.
  contribution to Hessian
        0.0000000000        0.0000000000        0.0000000000
        0.0000000000        0.0766987993       -0.0766987993
 @CHECKOUT-I, Total execution time (CPU/WALL):      302.11/      67.14 seconds.
--executable xvdint finished with status     0 in       67.31 seconds (walltime).
 --invoking executable--
/nfs/workspaces/public/cfour_mpi/bin/xanti
 @GETMEM-I,  Allocated    3814 MB of main memory.
 CCSD MO gammas will be sorted to Mulliken order.
 @CHECKOUT-I, Total execution time (CPU/WALL):       17.65/      50.91 seconds.
--executable xanti finished with status     0 in       51.02 seconds (walltime).
 --invoking executable--
/nfs/workspaces/public/cfour_mpi/bin/xbcktrn
 @GETMEM-I,  Allocated    3814 MB of main memory.
 CCSD MO gammas will be transformed to the AO basis.
 @CHECKOUT-I, Total execution time (CPU/WALL):       40.20/      18.84 seconds.
--executable xbcktrn finished with status     0 in       18.88 seconds (walltime).
 --invoking executable--
/nfs/workspaces/public/cfour_mpi/bin/xvdint
 @GETMEM-I,  Allocated    3814 MB of main memory.
 One- and two-electron integral derivatives are calculated
 for RHF-CC/MBPT hessians and dipole derivatives.
 Spherical gaussians are used.
  magnet F F

                     Kinetic energy integral gradient
                     --------------------------------

                         C #1 z    -0.5127592860
                         O #2 z     0.5127592860


 C #1       0.0000000000            0.0000000000           -0.5127592860
 O #2       0.0000000000            0.0000000000            0.5127592860



                   Nuclear attraction integral gradient
                   ------------------------------------

                         C #1 z    13.4525593197
                         O #2 z   -13.4525593197


 C #1       0.0000000000            0.0000000000           13.4525593197
 O #2       0.0000000000            0.0000000000          -13.4525593197



                      Reorthonormalization gradient
                      -----------------------------

                         C #1 z     0.0000000000
                         O #2 z     0.0000000000


 C #1       0.0000000000            0.0000000000            0.0000000000
 O #2       0.0000000000            0.0000000000            0.0000000000



                     Kinetic energy integral Hessian
                     -------------------------------


           Symmetry 1

           C #1 z      O #2 z

 C #1 z    0.539911
 O #2 z   -0.539911    0.539911


           Symmetry 2

           C #1 x      O #2 x

 C #1 x   -0.384476
 O #2 x    0.384476   -0.384476


           Symmetry 3

           C #1 y      O #2 y

 C #1 y   -0.384476
 O #2 y    0.384476   -0.384476




           C #1 x      C #1 y      C #1 z      O #2 x      O #2 y      O #2 z

 C #1 x   -0.384476
 C #1 y    0.000000   -0.384476
 C #1 z    0.000000    0.000000    0.539911

 O #2 x    0.384476    0.000000    0.000000   -0.384476
 O #2 y    0.000000    0.384476    0.000000    0.000000   -0.384476
 O #2 z    0.000000    0.000000   -0.539911    0.000000    0.000000    0.539911




                   Nuclear attraction integral Hessian
                   -----------------------------------


           Symmetry 1

           C #1 z      O #2 z

 C #1 z   -8.147961
 O #2 z    8.147961   -8.147961


           Symmetry 2

           C #1 x      O #2 x

 C #1 x    7.078929
 O #2 x   -7.078929    7.078929


           Symmetry 3

           C #1 y      O #2 y

 C #1 y    7.078929
 O #2 y   -7.078929    7.078929




           C #1 x      C #1 y      C #1 z      O #2 x      O #2 y      O #2 z

 C #1 x    7.078929
 C #1 y    0.000000    7.078929
 C #1 z    0.000000    0.000000   -8.147961

 O #2 x   -7.078929    0.000000    0.000000    7.078929
 O #2 y    0.000000   -7.078929    0.000000    0.000000    7.078929
 O #2 z    0.000000    0.000000    8.147961    0.000000    0.000000   -8.147961




                Highest order reorthonormalization Hessian
                ------------------------------------------


           Symmetry 1

           C #1 z      O #2 z

 C #1 z    0.000000
 O #2 z    0.000000    0.000000


           Symmetry 2

           C #1 x      O #2 x

 C #1 x    0.000000
 O #2 x    0.000000    0.000000


           Symmetry 3

           C #1 y      O #2 y

 C #1 y    0.000000
 O #2 y    0.000000    0.000000




           C #1 x      C #1 y      C #1 z      O #2 x      O #2 y      O #2 z




                Electronic contributions to dipole moment
                -----------------------------------------

                               au             Debye

                    z     -0.71908570     -1.82773387

  Conversion factor used: 1 a.u. =   2.54174691 Debye 



   Electronic contributions to static part of dipole moment derivatives
   --------------------------------------------------------------------


                     Total dipole moment derivatives
                     -------------------------------


           Symmetry 1
                              Ez

               C #1 z    -5.62202398
               O #2 z    -8.37797602

           Symmetry 2
                              Ex

               C #1 x    -5.67405052
               O #2 x    -8.32594948

           Symmetry 3
                              Ey

               C #1 y    -5.67405052
               O #2 y    -8.32594948



                       Ex          Ey          Ez

      C #1    x   -5.674051    0.000000    0.000000
      C #1    y    0.000000   -5.674051    0.000000
      C #1    z    0.000000    0.000000   -5.622024

      O #2    x   -8.325949    0.000000    0.000000
      O #2    y    0.000000   -8.325949    0.000000
      O #2    z    0.000000    0.000000   -8.377976

 Evaluation of 1e integral derivatives required    1.74 seconds.
                    8815  records have been written to the Sort file.
  Total length of Sort file :             180513570  words.
 Evaluation of 2el integral derivatives

                      Two-electron integral gradient
                      ------------------------------

                         C #1 z    -7.2019227775
                         O #2 z     7.2019227775


 C #1       0.0000000000            0.0000000000           -7.2019227775
 O #2       0.0000000000            0.0000000000            7.2019227775


 Evaluation of 2e integral derivatives required  576.10 seconds.

                            Molecular gradient
                            ------------------

                         C #1 z     0.5767138316
                         O #2 z    -0.5767138316


 C #1       0.0000000000            0.0000000000            0.5767138316
 O #2       0.0000000000            0.0000000000           -0.5767138316


  Molecular gradient norm 0.816E+00

                            Molecular hessian
                            -----------------


           Symmetry 1

           C #1 z      O #2 z

 C #1 z   14.624518
 O #2 z  -14.624518   14.624518


           Symmetry 2

           C #1 x      O #2 x

 C #1 x    5.321377
 O #2 x   -5.321377    5.321377


           Symmetry 3

           C #1 y      O #2 y

 C #1 y    5.321377
 O #2 y   -5.321377    5.321377




           C #1 x      C #1 y      C #1 z      O #2 x      O #2 y      O #2 z

 C #1 x    5.321377
 C #1 y    0.000000    5.321377
 C #1 z    0.000000    0.000000   14.624518

 O #2 x   -5.321377    0.000000    0.000000    5.321377
 O #2 y    0.000000   -5.321377    0.000000    0.000000    5.321377
 O #2 z    0.000000    0.000000  -14.624518    0.000000    0.000000   14.624518




                           Total dipole moment
                           -------------------

                               au             Debye

                    z      0.50028732      1.27160376

  Conversion factor used: 1 a.u. =   2.54174691 Debye 



                     Total dipole moment derivatives
                     -------------------------------


           Symmetry 1
                              Ez

               C #1 z     0.57398019
               O #2 z    -0.57398019

           Symmetry 2
                              Ex

               C #1 x     0.17161954
               O #2 x    -0.17161954

           Symmetry 3
                              Ey

               C #1 y     0.17161954
               O #2 y    -0.17161954



                       Ex          Ey          Ez

      C #1    x    0.171620    0.000000    0.000000
      C #1    y    0.000000    0.171620    0.000000
      C #1    z    0.000000    0.000000    0.573980

      O #2    x   -0.171620    0.000000    0.000000
      O #2    y    0.000000   -0.171620    0.000000
      O #2    z    0.000000    0.000000   -0.573980

 @CHECKOUT-I, Total execution time (CPU/WALL):      577.82/     102.53 seconds.
--executable xvdint finished with status     0 in      102.70 seconds (walltime).
 --invoking executable--
/nfs/workspaces/public/cfour_mpi/bin/xjoda
  @GTFLGS-I, Hessian will be transformed to curvilinear coordinates.
  @GTFLGS-I, Hessian will be transformed to curvilinear coordinates.
  igrd and ihes are                      0                     1
  gradient from JOBARC 
   0.000000000000000   0.000000000000000   0.576713831630660
   0.000000000000000   0.000000000000000  -0.576713831630660
 
  @PROJFCM-I, Projecting force constant matrix onto totally symmetric subspace.
  Largest difference between matrix elements of symmetrized
  and unsymmetrized FCM :     0.9272582702E-12.
  read isotopes from ZMAT file 
 
  Summary of diagonal Born-Oppenheimer correction at the correlated level
  The total diagonal Born-Oppenheimer correction (DBOC) is:      0.0038701029 a.u.
  The total diagonal Born-Oppenheimer correction (DBOC) is:        849.389399 cm-1
  The total diagonal Born-Oppenheimer correction (DBOC) is:            10.161 kJ/mole
  hellooooooo 
  readis is  F
 
 @CHECKOUT-I, Total execution time (CPU/WALL):        0.02/       0.07 seconds.
--executable xjoda finished with status     0 in        0.10 seconds (walltime).
  The final electronic energy is      -113.071448699337154 a.u. 
  This computation required                         4453.00 seconds (walltime).
