 --invoking executable--
/nfs/workspaces/public/cfour_mpi/bin/xjoda


   *************************************************************************
         <<<     CCCCCC     CCCCCC   |||     CCCCCC     CCCCCC   >>>
       <<<      CCC        CCC       |||    CCC        CCC         >>>
      <<<      CCC        CCC        |||   CCC        CCC            >>>
    <<<        CCC        CCC        |||   CCC        CCC              >>>
      <<<      CCC        CCC        |||   CCC        CCC            >>>
       <<<      CCC        CCC       |||    CCC        CCC         >>>
         <<<     CCCCCC     CCCCCC   |||     CCCCCC     CCCCCC   >>>
   *************************************************************************

     ****************************************************************
     * CFOUR Coupled-Cluster techniques for Computational Chemistry *
     ****************************************************************
 

   Department of Chemistry                Institut fuer Physikalische Chemie
   University of Florida                  Universitaet Mainz
   Gainesville, FL 32611, USA             D-55099 Mainz, Germany

   Department of Chemistry                Fakultaet fuer Chemie und Biowiss.
   Johns Hopkins University               Karlsruher Institut fuer Technologie
   Baltimore, MD 21218, USA               D-76131 Karlsruhe, Germany

   Department of Chemistry                Department of Physical Chemistry
   Southern Methodist University          Eotvos Lorand University
   Dallas, TX 75275, USA                  H-1053 Budapest, Hungary

 
                       Version 2.1
 
                     vincent.theory.phys.ucl.ac.uk                     
                     Tue  4 Mar 01:09:13 GMT 2025                      
                     integer*8 version is running
 
********************************************************************************
*                          Input from ZMAT file                                *
********************************************************************************
Carbon Monoxide DBOC calculation                                                
C                                                                               
O 1 r                                                                           
                                                                                
r=1.8                                                                           
                                                                                
                                                                                
*CFOUR(CALC=CCSD,BASIS=AUG-PCVQZ,SCF_CONV=10                                    
CC_CONV=14,DBOC=ON,MEMORY=500000000                                             
ZFIELD=200)                                                                     
                                                                                
%isotopes                                                                       
12                                                                              
18                                                                              
********************************************************************************
  @GTFLGS-I, Hessian will be transformed to curvilinear coordinates.
    -------------------------------------------------------------------
                    CFOUR Control Parameters 
    -------------------------------------------------------------------
        External           Internal           Value            Units
          Name               Name
    -------------------------------------------------------------------
       ABCDTYPE             IABCDT         STANDARD    [  0]    ***   
       ANHARMONIC           IANHAR         OFF         [  0]    ***   
       ANH_ALGORIT          IANALG         STANDARD    [  0]    ***   
       ANH_DERIVAT          IANDER         SECOND      [  1]    ***   
       ANH_MODE             ANHMOD         VIBRATION   [  0]    ***   
       ANH_STEPSIZ          ICUBST             50000          x 10-6  
       ANH_SYMMETR          IANHSM         ABELIAN     [  0]    ***   
       AO_LADDERS           IAOLAD         SINGLEPASS  [  1]    ***   
       AV_SCF               IAVSCF         OFF         [  0]    ***   
       BASIS                IBASIS         AUG-PCVQZ   [ 52]    ***   
       BOTHVECTORS          BOTHVC         OFF         [  0]    ***   
       BOX_POTENT           IPIAB          OFF         [  0]    ***   
       BREIT                IBREIT         OFF         [  0]    ***   
       BRUCK_CONV           IBRTOL          10D-  4             ***   
       BRUECKNER            IBRKNR         OFF         [  0]    ***   
       BUFFERSIZE           IBUFFS              4096            ***   
       CACHE_RECS           ICHREC             10               ***   
       CALCLEVEL            ICLLVL         CCSD        [ 10]    ***   
       CCORBOPT             ICCORB         OFF         [  0]  x 0.01  
       CC_CONV              ICCCNV          10D- 14             ***   
       CC_EXPORDER          ICCEOR              5               ***   
       CC_EXTRAPOL          ICCEXT         DIIS        [  1]    ***   
       CC_GUESS             ICCGES         MP2         [  0]    ***   
       CC_MAXCYC            ICCCYC            100              cycles 
       CC_PROGRAM           ICCPRO         VCC         [  0]    ***   
       CHARGE               ICHRGE              0               ***   
       CHOLESKY             ICHOLE         OFF         [  0]    ***   
       CIS_CONV             ICISTL              5               ***   
       COMM_SIZE            IPSIZE            ***               ***   
       CONSTANT             ICONST         OLD         [  1]    ***   
       CONTINUUM            ICONTU         NONE        [  0]    ***   
       CONTRACTION          ICNTYP         GENERAL     [  1]    ***   
       COORDINATES          ICOORD         INTERNAL    [  0]    ***   
       CPHF_CONVER          ICPHFT          10D- 16             ***   
       CPHF_MAXCYC          ICPHFC             64              cycles 
       CUBIC                ICUBIC         OFF         [  0]    ***   
       CURVILINEAR          ICURVY         ON          [  1]    ***   
       DBOC                 IDBOC          ON          [  1]    ***   
       DCT                  IDCT           OFF         [  0]    ***   
       DERIV_LEV            IDRLVL         SECOND      [  2]    ***   
       DEVMEM_SIZE          IDVMEM          50000000           MByte  
       DIAG_MRCC            IEOMST          10D-  0             ***   
       DIFF_TYPE            IDIFTY         RELAXED     [  0]    ***   
       DIRECT               IDIRCT         OFF         [  0]    ***   
       DROPMO               IDRPMO      NONE         
       ECP                  IECP           OFF         [  0]    ***   
       EIGENVECTOR          IVEC                1               ***   
       EL_ANHARM            IELANH         OFF         [  0]    ***   
       EOMFOLLOW            IEOMSR         ENERGY      [  0]    ***   
       EOMIP                IEOMIP         OFF         [  0]    ***   
       EOMLEVEL             HBARFM         SAME        [  0]    ***   
       EOM_MRCC             IMRCCE         NEW         [  1]    ***   
       EOM_NONIT            EOMNON         OFF         [  0]    ***   
       EOM_NSING            IEOMSI          10D-  0             ***   
       EOM_NSTATES          IMRCCD         DAVIDSON    [  0]    ***   
       EOM_NTRIP            IEOMTR          10D-  0             ***   
       EOM_ORDER            IEXORD         ENERGY      [  0]    ***   
       EOM_PROPSTA          IEOMST              0               ***   
       ESTATE_CONV          IEXTOL          10D-  5             ***   
       ESTATE_DIAG          IEXDIG         ITERATIVE   [  0]    ***   
       ESTATE_LOCK          IESLOC         ON          [  1]    ***   
       ESTATE_MAXC          IEXMXC             40               ***   
       ESTATE_PROP          IEXPRP         OFF         [  0]    ***   
       EVAL_HESS            IRECAL              0            # of cyc.
       EXCITATION           IEXCIT              0               ***   
       EXCITE               IEXCIT         NONE        [  0]    ***   
       EXTERN_POT           IEXPOT         OFF         [  0]    ***   
       FCGRADNEW            IFCGNW         OFF         [  0]    ***   
       FC_FIELD             IFINFC              0             x 10-6  
       FD_CALTYPE           IFDCAL         GRADONLY    [  0]    ***   
       FD_PROJECT           IFDPRJ         OFF         [  1]    ***   
       FD_STEPSIZE          IDISFD              0            10-4 bohr
       FD_USEGROUP          IFDGRP         FULL        [  0]    ***   
       FILE_RECSIZ          IFLREC              4096           words  
       FINITE_PERT          IFIPER              0             x 10-6  
       FIXGEOM              IFIXGM         OFF         [  0]    ***   
       FOCK                 IFOCK          AO          [  1]    ***   
       FREQ_ALGORI          IVIALG         STANDARD    [  0]    ***   
       FROZEN_CORE          IFROCO         OFF         [  0]    ***   
       GAMMA_ABCD           IGABCD         STORE       [  0]    ***   
       GAMMA_ABCI           IGABCI         STORE       [  0]    ***   
       GENBAS_1             IGNBS1              0               ***   
       GENBAS_2             IGNBS2              0               ***   
       GENBAS_3             IGNBS3              0               ***   
       GENBAS_4             IGNBS4              0               ***   
       GEO_CONV             ICONTL              5              H/bohr 
       GEO_MAXCYC           IOPTCY             50               ***   
       GEO_MAXSTEP          IMXSTP            300            millibohr
       GEO_METHOD           INR            SINGLE_POINT[  5]    ***   
       GIAO                 IGIAO          OFF         [  1]    ***   
       GIMIC                IGIMIC         OFF         [  0]    ***   
       GRID                 IGRID          OFF         [  0]    ***   
       GRID_ALGO            IGALGO         SERIAL      [  0]    ***   
       GUESS                IGUESS         MOREAD      [  0]    ***   
       HBAR                 IHBAR          OFF         [  0]    ***   
       HESS_TYPE            IHESTP         SCF         [  0]    ***   
       HF2_FILE             IHF2Fl         USE         [  1]    ***   
       HFSTABILITY          ISTABL         OFF         [  0]    ***   
       INCORE               INCORE         OFF         [  0]    ***   
       INPUT_MRCC           IMRCC          ON          [  1]    ***   
       INTEGRALS            INTTYP         VMOL        [  1]    ***   
       JODA_PRINT           IJPRNT              0               ***   
       KEYWORD_OUT          IDMPKW         NO          [  0]    ***   
       LINDEP_TOL           ILINDP              8               ***   
       LINEQ_CONV           IZTACN          10D-  7           cycles  
       LINEQ_EXPOR          ILMAXD              5               ***   
       LINEQ_MAXCY          ILMAXC            100               ***   
       LINEQ_TYPE           ILTYPE         DIIS        [  1]    ***   
       LOCK_ORBOCC          ILOCOC         OFF         [  0]    ***   
       MEMORY_SIZE          IMEMSZ         500000000           words  
       MEM_UNIT             IMEMU          INTEGERWORDS[  0]    ***   
       MRCC                 IMRCCC         OFF         [  0]    ***   
       MULTIPLICTY          IMULTP              1               ***   
       NACOUPLING           IVCOUP         OFF         [  0]    ***   
       NEGEVAL              IDIE           ABORT       [  0]    ***   
       NEWNORM              INEWNO         OFF         [  0]    ***   
       NON-HF               INONHF         OFF         [  0]    ***   
       NTOP_TAMP            ITOPT2             15               ***   
       NUC_MODEL            INUCMO         POINT       [  0]    ***   
       OCCUPATION           IOCCU   ESTIMATED BY SCF 
       OPEN-SHELL           IOPEN          SPIN-ORBITAL[  0]    ***   
       OPTVIB               IOPTVB         OFF         [  0]    ***   
       ORBITALS             IORBTP         STANDARD    [  0]    ***   
       PARALLEL             IPARAL         ON          [  1]    ***   
       PARA_INT             IPINTS         ON          [  1]    ***   
       PARA_PRINT           IPPRIN              0               ***   
       PERT_ORB             IPTORB         STANDARD    [  0]    ***   
       POINTS               IGRDFD              0               ***   
       PRINT                IPRNT               0               ***   
       PROPS                IPROPS         OFF         [  0]    ***   
       PROP_INTEGR          IINTYP         INTERNAL    [  0]    ***   
       PSI                  IPSI           OFF         [  0]    ***   
       QC_ALG               IQCALG         FLM         [  0]    ***   
       QC_LINALG            IQCLIN         TRIDIAG     [  2]    ***   
       QC_MAXCYC            IQCMAX          10D-100           cycles  
       QC_MAXSCFCY          IQCMSC          10D- 15           cycles  
       QC_RTRUST            IQCRTR          10D-  0           x 10-3  
       QC_SKIPSCF           IQCSKI         OFF         [  0]    ***   
       QC_START             IQCSTA          10D-  1             ***   
       QRHFGUESS            IQGUES         OFF         [  0]    ***   
       QUARTIC              IQUART         OFF         [  0]    ***   
       RAMAN_INT            IRAMIN         OFF         [  0]    ***   
       RAMAN_ORB            IRAMRE         UNRELAXED   [  0]    ***   
       RDO                  IRDOFM         ON          [  1]    ***   
       REDUCE_REPR          REDREP         Ir          [  0]    ***   
       REFERENCE            IREFNC         RHF         [  0]    ***   
       RELATIVIST           IRELAT         OFF         [  0]    ***   
       RELAX_DENS           IRDENS         ON          [  1]    ***   
       RESET_FLAGS          IRESET         OFF         [  0]    ***   
       RESTART_CC           ICCRES         OFF         [  0]    ***   
       ROT_EVEC             ROTVEC              0               ***   
       SAVE_INTS            ISVINT         OFF         [  0]    ***   
       SCALE_ON             ISTCRT              0               ***   
       SCF_CONV             ISCFCV          10D- 10             ***   
       SCF_DAMPING          IDAMP               0             x 10-3  
       SCF_EXPORDE          IRPPOR              6               ***   
       SCF_EXPSTAR          IRPPLS              8               ***   
       SCF_EXTRAPO          IRPP           ON          [  1]    ***   
       SCF_MAXCYC           ISCFCY            150              cycles 
       SCF_NOSTOP           ISCFST         OFF         [  0]    ***   
       SCF_PRINT            ISCFPR              0               ***   
       SCF_PROG             ISCFPR         SCF         [  0]    ***   
       SD_FIELD             IFINSD              0             x 10-6  
       SOPERT               IPERSO         OFF         [  0]    ***   
       SPHERICAL            IDFGHI         ON          [  1]    ***   
       SPINORBIT            ISOCAL         OFF         [  0]    ***   
       SPINROTATIO          ISRCON         OFF         [  0]    ***   
       SPIN_FLIP            ISPFLP         OFF         [  0]    ***   
       SPIN_ORBIT           ISPORB         OFF         [  0]    ***   
       SPIN_SCAL            ISCSMP         OFF         [  0]    ***   
       STEEPSCALE           ISTPSC              1000          x 10-3  
       SUBGROUP             ISUBGP         DEFAULT     [  0]    ***   
       SUBGRPAXIS           ISBXYZ         X           [  0]    ***   
       SYMMETRY             ISYM           ON          [  0]    ***   
       SYM_CHECK            ISYMCK         OVERRIDE    [  1]    ***   
       T3_EXTRAPOL          IT3EXT         OFF         [  0]    ***   
       T4_EXTRAPOL          IT4EXP         OFF         [  0]    ***   
       TAMP_SUM             IEVERY              5               ***   
       TESTSUITE            ITESTS         OFF         [  0]    ***   
       THERMOCH             ITHERM         OFF         [  0]    ***   
       TOL_CHOLESK          ITOLCH          10D-  4             ***   
       TRANGRAD             IRESRM         OFF         [  0]    ***   
       TRANS_INV            ITRAIN         IGNORE      [  1]    ***   
       TREAT_PERT           ITREAT         SIMULTANEOUS[  0]    ***   
       TRIP_ALGORI          ITRALG         NORMAL      [  0]    ***   
       UIJ_THRESHO          IUIJTH              1               ***   
       UNITS                IUNITS         ANGSTROM    [  0]    ***   
       UNOS                 IUNOS          OFF         [  0]    ***   
       UPDATE_HESS          IHUPDT         ON          [  1]    ***   
       VIBPHASE             ISETPH         STANDARD    [  0]    ***   
       VIBRATION            IVIB           ANALYTIC    [  1]    ***   
       VIB_ALGORIT          IGEALG         STANDARD    [  0]    ***   
       VNATORB              IVNORB         OFF         [  0]    ***   
       VTRAN                IVTRAN         FULL/PARTIAL[  0]    ***   
       XFIELD               IXEFLD              0             x 10-6  
       XFORM_TOL            IXFTOL          10D- 11             ***   
       YFIELD               IYEFLD              0             x 10-6  
       ZFIELD               IZEFLD            200             x 10-6  
       ZSCALE_EXP           IZEXPS         OFF         [  0]    ***   
    -------------------------------------------------------------------
   2 entries found in Z-matrix 
   Job Title : Carbon Monoxide DBOC calculation                                                
   There are  1 unique internal coordinates.
   Of these,  0 will be optimized.
   User supplied Z-matrix: 
--------------------------------------------------------------------------------
       SYMBOL    BOND      LENGTH    ANGLE     ANGLE     DIHED     ANGLE
                  TO      (ANGST)    WRT      (DEG)      WRT      (DEG)
--------------------------------------------------------------------------------
        C    
        O          1         r    
                  *Initial values for internal coordinates* 
                      Name             Value
                        r               1.8000000000
--------------------------------------------------------------------------------
  read isotopes from ZMAT file 
   Rotational constants (in cm-1): 
          0.7226485786             0.7226485786
   Rotational constants (in MHz): 
      21664.4623987628         21664.4623987628
********************************************************************************
   The full molecular point group is CXv .
   The largest Abelian subgroup of the full molecular point group is C2v .
   The computational point group is C2v .
********************************************************************************
--------------------------------------------------------------------------------
   Analysis of internal coordinates specified by Z-matrix 
--------------------------------------------------------------------------------
   *The nuclear repulsion energy is   14.111389333333332 a.u.
   *There is   1 degree of freedom within the tot. symm. molecular subspace.
   *Z-matrix requests optimization of   0 coordinates.
   *The optimization is constrained.
   *The following   1 parameters can have non-zero 
    derivatives within the totally symmetric subspace:
             r    [ 1]
   *The following   0 parameters are to be optimized:

   *The following coordinates must be varied in an  unconstrained optimization.
             r    [ 1]
--------------------------------------------------------------------------------


 ----------------------------------------------------------------
         Coordinates used in calculation (QCOMP) 
 ----------------------------------------------------------------
 Z-matrix   Atomic            Coordinates (in bohr)
  Symbol    Number           X              Y              Z
 ----------------------------------------------------------------
     C         6        -0.00000000     0.00000000     2.04086656
     O         8         0.00000000     0.00000000    -1.36064118
 ----------------------------------------------------------------
 
   Interatomic distance matrix (Angstroms) 
 
                 C             O    
                [ 1]        [ 2]
  C    [ 1]     0.00000
  O    [ 2]     1.80000     0.00000
 rotcon2
   Rotational constants (in cm-1): 
          0.7226485786             0.0000000000
   Rotational constants (in MHz): 
      21664.4623987628             0.0000000000
  ECPDATA file not present.   Using default ECPDATA. 
  @GTFLGS-I, Hessian will be transformed to curvilinear coordinates.
  There are  218 basis functions.
 @CHECKOUT-I, Total execution time (CPU/WALL):        0.22/       0.32 seconds.
--executable xjoda finished with status     0 in        0.37 seconds (walltime).
 --invoking executable--
/nfs/workspaces/public/cfour_mpi/bin/xvmol
 SERIAL VERSION OF MOLECULE STARTED
********************************************************************************
                    INPUT FROM MOL FILE
********************************************************************************
INTGRL        1    0    1    0    0    0    0    0    0                         
         *** CFOUR Program System (Release V0.1) ***                            
Carbon Monoxide DBOC calculation                                                
    2    2 X  Y       0.10E-08              0    0                              
   9999.00      3.00                                                            
          6.00000000    1    5    1    1    1    1    1                         
C #1  -0.000000000000000   0.000000000000000   2.040866557974462                
   16    9                                                                      
   33980.0000000000       9.100000000000000E-005 -1.900000000000000E-005        
  0.000000000000000E+000  0.000000000000000E+000  0.000000000000000E+000        
  0.000000000000000E+000  0.000000000000000E+000  0.000000000000000E+000        
  0.000000000000000E+000                                                        
   5089.00000000000       7.040000000000000E-004 -1.510000000000000E-004        
  0.000000000000000E+000  0.000000000000000E+000  0.000000000000000E+000        
  0.000000000000000E+000  0.000000000000000E+000  0.000000000000000E+000        
  0.000000000000000E+000                                                        
   1157.00000000000       3.693000000000000E-003 -7.850000000000000E-004        
  0.000000000000000E+000  0.000000000000000E+000  0.000000000000000E+000        
  0.000000000000000E+000  0.000000000000000E+000  0.000000000000000E+000        
  0.000000000000000E+000                                                        
   326.600000000000       1.536000000000000E-002 -3.324000000000000E-003        
  0.000000000000000E+000  0.000000000000000E+000  0.000000000000000E+000        
  0.000000000000000E+000  0.000000000000000E+000  0.000000000000000E+000        
  0.000000000000000E+000                                                        
   106.100000000000       5.292900000000000E-002 -1.151200000000000E-002        
  0.000000000000000E+000  0.000000000000000E+000  0.000000000000000E+000        
  0.000000000000000E+000  0.000000000000000E+000  0.000000000000000E+000        
  0.000000000000000E+000                                                        
   38.1100000000000       0.147043000000000      -3.416000000000000E-002        
  0.000000000000000E+000  0.000000000000000E+000  0.000000000000000E+000        
  0.000000000000000E+000  0.000000000000000E+000  0.000000000000000E+000        
  0.000000000000000E+000                                                        
   14.7500000000000       0.305631000000000      -7.717300000000001E-002        
  0.000000000000000E+000  0.000000000000000E+000  0.000000000000000E+000        
  0.000000000000000E+000  0.000000000000000E+000  0.000000000000000E+000        
  0.000000000000000E+000                                                        
   6.03500000000000       0.399345000000000      -0.141493000000000             
  0.000000000000000E+000  0.000000000000000E+000  0.000000000000000E+000        
  0.000000000000000E+000  0.000000000000000E+000  0.000000000000000E+000        
  0.000000000000000E+000                                                        
   2.53000000000000       0.217051000000000      -0.118019000000000             
  0.000000000000000E+000  0.000000000000000E+000  0.000000000000000E+000        
  0.000000000000000E+000  0.000000000000000E+000  0.000000000000000E+000        
  0.000000000000000E+000                                                        
  0.735500000000000       1.589400000000000E-002  0.273806000000000             
   1.00000000000000       0.000000000000000E+000  0.000000000000000E+000        
  0.000000000000000E+000  0.000000000000000E+000  0.000000000000000E+000        
  0.000000000000000E+000                                                        
  0.290500000000000      -3.084000000000000E-003  0.586510000000000             
  0.000000000000000E+000   1.00000000000000       0.000000000000000E+000        
  0.000000000000000E+000  0.000000000000000E+000  0.000000000000000E+000        
  0.000000000000000E+000                                                        
  0.111100000000000       9.779999999999999E-004  0.285430000000000             
  0.000000000000000E+000  0.000000000000000E+000   1.00000000000000             
  0.000000000000000E+000  0.000000000000000E+000  0.000000000000000E+000        
  0.000000000000000E+000                                                        
   7.21600000000000       0.000000000000000E+000  0.000000000000000E+000        
  0.000000000000000E+000  0.000000000000000E+000  0.000000000000000E+000        
   1.00000000000000       0.000000000000000E+000  0.000000000000000E+000        
  0.000000000000000E+000                                                        
   19.5700000000000       0.000000000000000E+000  0.000000000000000E+000        
  0.000000000000000E+000  0.000000000000000E+000  0.000000000000000E+000        
  0.000000000000000E+000   1.00000000000000       0.000000000000000E+000        
  0.000000000000000E+000                                                        
   53.0730000000000       0.000000000000000E+000  0.000000000000000E+000        
  0.000000000000000E+000  0.000000000000000E+000  0.000000000000000E+000        
  0.000000000000000E+000  0.000000000000000E+000   1.00000000000000             
  0.000000000000000E+000                                                        
  4.145000000000000E-002  0.000000000000000E+000  0.000000000000000E+000        
  0.000000000000000E+000  0.000000000000000E+000  0.000000000000000E+000        
  0.000000000000000E+000  0.000000000000000E+000  0.000000000000000E+000        
   1.00000000000000                                                             
   10    8                                                                      
   34.5100000000000       5.378000000000000E-003  0.000000000000000E+000        
  0.000000000000000E+000  0.000000000000000E+000  0.000000000000000E+000        
  0.000000000000000E+000  0.000000000000000E+000  0.000000000000000E+000        
   7.91500000000000       3.613200000000000E-002  0.000000000000000E+000        
  0.000000000000000E+000  0.000000000000000E+000  0.000000000000000E+000        
  0.000000000000000E+000  0.000000000000000E+000  0.000000000000000E+000        
   2.36800000000000       0.142493000000000       0.000000000000000E+000        
  0.000000000000000E+000  0.000000000000000E+000  0.000000000000000E+000        
  0.000000000000000E+000  0.000000000000000E+000  0.000000000000000E+000        
  0.813200000000000       0.342150000000000        1.00000000000000             
  0.000000000000000E+000  0.000000000000000E+000  0.000000000000000E+000        
  0.000000000000000E+000  0.000000000000000E+000  0.000000000000000E+000        
  0.289000000000000       0.463864000000000       0.000000000000000E+000        
   1.00000000000000       0.000000000000000E+000  0.000000000000000E+000        
  0.000000000000000E+000  0.000000000000000E+000  0.000000000000000E+000        
  0.100700000000000       0.250028000000000       0.000000000000000E+000        
  0.000000000000000E+000   1.00000000000000       0.000000000000000E+000        
  0.000000000000000E+000  0.000000000000000E+000  0.000000000000000E+000        
   8.18200000000000       0.000000000000000E+000  0.000000000000000E+000        
  0.000000000000000E+000  0.000000000000000E+000   1.00000000000000             
  0.000000000000000E+000  0.000000000000000E+000  0.000000000000000E+000        
   24.1860000000000       0.000000000000000E+000  0.000000000000000E+000        
  0.000000000000000E+000  0.000000000000000E+000  0.000000000000000E+000        
   1.00000000000000       0.000000000000000E+000  0.000000000000000E+000        
   71.4940000000000       0.000000000000000E+000  0.000000000000000E+000        
  0.000000000000000E+000  0.000000000000000E+000  0.000000000000000E+000        
  0.000000000000000E+000   1.00000000000000       0.000000000000000E+000        
  3.218000000000000E-002  0.000000000000000E+000  0.000000000000000E+000        
  0.000000000000000E+000  0.000000000000000E+000  0.000000000000000E+000        
  0.000000000000000E+000  0.000000000000000E+000   1.00000000000000             
    6    6                                                                      
   1.84800000000000        1.00000000000000       0.000000000000000E+000        
  0.000000000000000E+000  0.000000000000000E+000  0.000000000000000E+000        
  0.000000000000000E+000                                                        
  0.649000000000000       0.000000000000000E+000   1.00000000000000             
  0.000000000000000E+000  0.000000000000000E+000  0.000000000000000E+000        
  0.000000000000000E+000                                                        
  0.228000000000000       0.000000000000000E+000  0.000000000000000E+000        
   1.00000000000000       0.000000000000000E+000  0.000000000000000E+000        
  0.000000000000000E+000                                                        
   8.65600000000000       0.000000000000000E+000  0.000000000000000E+000        
  0.000000000000000E+000   1.00000000000000       0.000000000000000E+000        
  0.000000000000000E+000                                                        
   33.2130000000000       0.000000000000000E+000  0.000000000000000E+000        
  0.000000000000000E+000  0.000000000000000E+000   1.00000000000000             
  0.000000000000000E+000                                                        
  7.660000000000000E-002  0.000000000000000E+000  0.000000000000000E+000        
  0.000000000000000E+000  0.000000000000000E+000  0.000000000000000E+000        
   1.00000000000000                                                             
    4    4                                                                      
   1.41900000000000        1.00000000000000       0.000000000000000E+000        
  0.000000000000000E+000  0.000000000000000E+000                                
  0.485000000000000       0.000000000000000E+000   1.00000000000000             
  0.000000000000000E+000  0.000000000000000E+000                                
   24.6940000000000       0.000000000000000E+000  0.000000000000000E+000        
   1.00000000000000       0.000000000000000E+000                                
  0.187000000000000       0.000000000000000E+000  0.000000000000000E+000        
  0.000000000000000E+000   1.00000000000000                                     
    2    2                                                                      
   1.01100000000000        1.00000000000000       0.000000000000000E+000        
  0.424000000000000       0.000000000000000E+000   1.00000000000000             
          8.00000000    1    5    1    1    1    1    1                         
O #2   0.000000000000000   0.000000000000000  -1.360641179227319                
   16    9                                                                      
   61420.0000000000       9.000000000000001E-005 -2.000000000000000E-005        
  0.000000000000000E+000  0.000000000000000E+000  0.000000000000000E+000        
  0.000000000000000E+000  0.000000000000000E+000  0.000000000000000E+000        
  0.000000000000000E+000                                                        
   9199.00000000000       6.980000000000001E-004 -1.590000000000000E-004        
  0.000000000000000E+000  0.000000000000000E+000  0.000000000000000E+000        
  0.000000000000000E+000  0.000000000000000E+000  0.000000000000000E+000        
  0.000000000000000E+000                                                        
   2091.00000000000       3.664000000000000E-003 -8.290000000000000E-004        
  0.000000000000000E+000  0.000000000000000E+000  0.000000000000000E+000        
  0.000000000000000E+000  0.000000000000000E+000  0.000000000000000E+000        
  0.000000000000000E+000                                                        
   590.900000000000       1.521800000000000E-002 -3.508000000000000E-003        
  0.000000000000000E+000  0.000000000000000E+000  0.000000000000000E+000        
  0.000000000000000E+000  0.000000000000000E+000  0.000000000000000E+000        
  0.000000000000000E+000                                                        
   192.300000000000       5.242300000000000E-002 -1.215600000000000E-002        
  0.000000000000000E+000  0.000000000000000E+000  0.000000000000000E+000        
  0.000000000000000E+000  0.000000000000000E+000  0.000000000000000E+000        
  0.000000000000000E+000                                                        
   69.3200000000000       0.145921000000000      -3.626100000000000E-002        
  0.000000000000000E+000  0.000000000000000E+000  0.000000000000000E+000        
  0.000000000000000E+000  0.000000000000000E+000  0.000000000000000E+000        
  0.000000000000000E+000                                                        
   26.9700000000000       0.305258000000000      -8.299200000000000E-002        
  0.000000000000000E+000  0.000000000000000E+000  0.000000000000000E+000        
  0.000000000000000E+000  0.000000000000000E+000  0.000000000000000E+000        
  0.000000000000000E+000                                                        
   11.1000000000000       0.398508000000000      -0.152090000000000             
  0.000000000000000E+000  0.000000000000000E+000  0.000000000000000E+000        
  0.000000000000000E+000  0.000000000000000E+000  0.000000000000000E+000        
  0.000000000000000E+000                                                        
   4.68200000000000       0.216980000000000      -0.115331000000000             
  0.000000000000000E+000  0.000000000000000E+000  0.000000000000000E+000        
  0.000000000000000E+000  0.000000000000000E+000  0.000000000000000E+000        
  0.000000000000000E+000                                                        
   1.42800000000000       1.759400000000000E-002  0.288979000000000             
   1.00000000000000       0.000000000000000E+000  0.000000000000000E+000        
  0.000000000000000E+000  0.000000000000000E+000  0.000000000000000E+000        
  0.000000000000000E+000                                                        
  0.554700000000000      -2.502000000000000E-003  0.586128000000000             
  0.000000000000000E+000   1.00000000000000       0.000000000000000E+000        
  0.000000000000000E+000  0.000000000000000E+000  0.000000000000000E+000        
  0.000000000000000E+000                                                        
  0.206700000000000       9.540000000000000E-004  0.277624000000000             
  0.000000000000000E+000  0.000000000000000E+000   1.00000000000000             
  0.000000000000000E+000  0.000000000000000E+000  0.000000000000000E+000        
  0.000000000000000E+000                                                        
   12.9740000000000       0.000000000000000E+000  0.000000000000000E+000        
  0.000000000000000E+000  0.000000000000000E+000  0.000000000000000E+000        
   1.00000000000000       0.000000000000000E+000  0.000000000000000E+000        
  0.000000000000000E+000                                                        
   34.9000000000000       0.000000000000000E+000  0.000000000000000E+000        
  0.000000000000000E+000  0.000000000000000E+000  0.000000000000000E+000        
  0.000000000000000E+000   1.00000000000000       0.000000000000000E+000        
  0.000000000000000E+000                                                        
   93.8810000000000       0.000000000000000E+000  0.000000000000000E+000        
  0.000000000000000E+000  0.000000000000000E+000  0.000000000000000E+000        
  0.000000000000000E+000  0.000000000000000E+000   1.00000000000000             
  0.000000000000000E+000                                                        
  6.959000000000000E-002  0.000000000000000E+000  0.000000000000000E+000        
  0.000000000000000E+000  0.000000000000000E+000  0.000000000000000E+000        
  0.000000000000000E+000  0.000000000000000E+000  0.000000000000000E+000        
   1.00000000000000                                                             
   10    8                                                                      
   63.4200000000000       6.044000000000000E-003  0.000000000000000E+000        
  0.000000000000000E+000  0.000000000000000E+000  0.000000000000000E+000        
  0.000000000000000E+000  0.000000000000000E+000  0.000000000000000E+000        
   14.6600000000000       4.179900000000000E-002  0.000000000000000E+000        
  0.000000000000000E+000  0.000000000000000E+000  0.000000000000000E+000        
  0.000000000000000E+000  0.000000000000000E+000  0.000000000000000E+000        
   4.45900000000000       0.161143000000000       0.000000000000000E+000        
  0.000000000000000E+000  0.000000000000000E+000  0.000000000000000E+000        
  0.000000000000000E+000  0.000000000000000E+000  0.000000000000000E+000        
   1.53100000000000       0.356731000000000        1.00000000000000             
  0.000000000000000E+000  0.000000000000000E+000  0.000000000000000E+000        
  0.000000000000000E+000  0.000000000000000E+000  0.000000000000000E+000        
  0.530200000000000       0.448309000000000       0.000000000000000E+000        
   1.00000000000000       0.000000000000000E+000  0.000000000000000E+000        
  0.000000000000000E+000  0.000000000000000E+000  0.000000000000000E+000        
  0.175000000000000       0.244940000000000       0.000000000000000E+000        
  0.000000000000000E+000   1.00000000000000       0.000000000000000E+000        
  0.000000000000000E+000  0.000000000000000E+000  0.000000000000000E+000        
   14.4750000000000       0.000000000000000E+000  0.000000000000000E+000        
  0.000000000000000E+000  0.000000000000000E+000   1.00000000000000             
  0.000000000000000E+000  0.000000000000000E+000  0.000000000000000E+000        
   42.7300000000000       0.000000000000000E+000  0.000000000000000E+000        
  0.000000000000000E+000  0.000000000000000E+000  0.000000000000000E+000        
   1.00000000000000       0.000000000000000E+000  0.000000000000000E+000        
   126.140000000000       0.000000000000000E+000  0.000000000000000E+000        
  0.000000000000000E+000  0.000000000000000E+000  0.000000000000000E+000        
  0.000000000000000E+000   1.00000000000000       0.000000000000000E+000        
  5.348000000000000E-002  0.000000000000000E+000  0.000000000000000E+000        
  0.000000000000000E+000  0.000000000000000E+000  0.000000000000000E+000        
  0.000000000000000E+000  0.000000000000000E+000   1.00000000000000             
    6    6                                                                      
   3.77500000000000        1.00000000000000       0.000000000000000E+000        
  0.000000000000000E+000  0.000000000000000E+000  0.000000000000000E+000        
  0.000000000000000E+000                                                        
   1.30000000000000       0.000000000000000E+000   1.00000000000000             
  0.000000000000000E+000  0.000000000000000E+000  0.000000000000000E+000        
  0.000000000000000E+000                                                        
  0.444000000000000       0.000000000000000E+000  0.000000000000000E+000        
   1.00000000000000       0.000000000000000E+000  0.000000000000000E+000        
  0.000000000000000E+000                                                        
   14.9270000000000       0.000000000000000E+000  0.000000000000000E+000        
  0.000000000000000E+000   1.00000000000000       0.000000000000000E+000        
  0.000000000000000E+000                                                        
   57.5440000000000       0.000000000000000E+000  0.000000000000000E+000        
  0.000000000000000E+000  0.000000000000000E+000   1.00000000000000             
  0.000000000000000E+000                                                        
  0.154000000000000       0.000000000000000E+000  0.000000000000000E+000        
  0.000000000000000E+000  0.000000000000000E+000  0.000000000000000E+000        
   1.00000000000000                                                             
    4    4                                                                      
   2.66600000000000        1.00000000000000       0.000000000000000E+000        
  0.000000000000000E+000  0.000000000000000E+000                                
  0.859000000000000       0.000000000000000E+000   1.00000000000000             
  0.000000000000000E+000  0.000000000000000E+000                                
   26.4830000000000       0.000000000000000E+000  0.000000000000000E+000        
   1.00000000000000       0.000000000000000E+000                                
  0.324000000000000       0.000000000000000E+000  0.000000000000000E+000        
  0.000000000000000E+000   1.00000000000000                                     
    2    2                                                                      
   1.84600000000000        1.00000000000000       0.000000000000000E+000        
  0.714000000000000       0.000000000000000E+000   1.00000000000000             
FINISH                                                                          
 
********************************************************************************
 ONE- AND TWO-ELECTRON INTEGRALS OVER SYMMETRY-ADAPTED AOS ARE CALCULATED.

  SPHERICAL HARMONICS ARE USED.
  
  INTEGRALS LESS THAN  0.10E-13 ARE NEGLECTED.

  NUCLEAR REPULSION ENERGY :   14.1113893333 A.U.
  @MOLECU-I, ONE ELECTRON INTEGRALS (CPU/WALL):        0.06/       0.06 SECONDS.
  @TWOEL-I,    4349395 INTEGRALS OF SYMMETRY TYPE  I I I I
  @TWOEL-I,   18763966 INTEGRALS OF SYMMETRY TYPE  I J I J
  @TWOEL-I,    9883510 INTEGRALS OF SYMMETRY TYPE  I I J J
  @TWOEL-I,   13837102 INTEGRALS OF SYMMETRY TYPE  I J K L
  @TWOEL-I, TOTAL NUMBER OF 2-E INTEGRALS   46833973.
  @MOLECU-I, TWO ELECTRON INTEGRALS (CPU/WALL):      200.27/      27.16 SECONDS.
 @CHECKOUT-I, Total execution time (CPU/WALL):      200.35/      27.25 seconds.

Running with 14 threads/proc

--executable xvmol finished with status     0 in       27.29 seconds (walltime).
 --invoking executable--
/nfs/workspaces/public/cfour_mpi/bin/xvmol2ja
 @GETMEM-I,  Allocated    3814 MB of main memory.
 @CHECKOUT-I, Total execution time (CPU/WALL):        0.18/       0.06 seconds.
--executable xvmol2ja finished with status     0 in        0.12 seconds (walltime).
 --invoking executable--
/nfs/workspaces/public/cfour_mpi/bin/xvprop
 @GETMEM-I,  Allocated    3814 MB of main memory.
   Property integrals will be calculated.
    --------------------------------------------------------------
                                   Property evaluated at 
    Property type                X             Y             Z
    --------------------------------------------------------------
    Dipole moment               ----          ----          ----  
    Quadrupole moment           ----          ----          ----  
    Octopole moment             ----          ----          ----  
    Relativisitic corr.         ----          ----          ----  
    Second moment            0.0000000     0.0000000     0.0000000
    Electron density         0.0000000     0.0000000     2.0408666
    Electron density         0.0000000     0.0000000    -1.3606412
    Field gradient           0.0000000     0.0000000     2.0408666
    Field gradient           0.0000000     0.0000000    -1.3606412
    Potential                0.0000000     0.0000000     2.0408666
    Potential                0.0000000     0.0000000    -1.3606412
    --------------------------------------------------------------
 @CHECKOUT-I, Total execution time (CPU/WALL):        1.31/       1.34 seconds.
--executable xvprop finished with status     0 in        1.36 seconds (walltime).
 --invoking executable--
/nfs/workspaces/public/cfour_mpi/bin/xvscf
  There are  218 functions in the AO basis.

  There are 4 irreducible representations.

       Irrep        # of functions
         1                 86
         2                 52
         3                 52
         4                 28


  Parameters for SCF calculation: 
        SCF reference function:  RHF  
  Maximum number of iterations:  150
     Full symmetry point group: CXv 
     Computational point group: C2v 
        Initial density matrix: MOREAD                 
     SCF convergence tolerance: 10**(-10)
  DIIS convergence acceleration:  ON
          Latest start for DIIS:   8
                     DIIS order:   6

  Memory information:    2523578 words required.
  Fock matrices are constructed from AO integral file.
 @GETMEM-I,  Allocated      19 MB of main memory.
  Initialization and symmetry analysis required      0.002 seconds.

  Adding electric field perturbation to one-electron Hamiltonian.
  Field direction     : Z
  Field strength      :  0.0002000 a.u.

  @INITGES-I, Occupancies from core Hamiltonian:

          Alpha population by irrep:   5    1    1    0
           Beta population by irrep:   5    1    1    0


 total no. of electrons in initial guess :  0.000000000000000E+000
  --------------------------------------------------------------------
  Iteration         Total Energy            Largest Density Difference
  --------------------------------------------------------------------
       0            14.111117319351209              0.0000000000D+00
   current occupation vector 
     5  1  1  0
     5  1  1  0
       1           -93.762564852373202              0.1756643452D+02
   current occupation vector 
     5  1  1  0
     5  1  1  0
       2           -97.501537212263514              0.1756643012D+02
   current occupation vector 
     5  1  1  0
     5  1  1  0
       3           -99.671874476443151              0.7020446018D+01
   current occupation vector 
     5  1  1  0
     5  1  1  0
       4           -93.991237007477025              0.7019170882D+01
   current occupation vector 
     5  1  1  0
     5  1  1  0
       5           -99.700985015301228              0.7081541211D+01
   current occupation vector 
     5  1  1  0
     5  1  1  0
       6           -93.907683919710820              0.7081521287D+01
   current occupation vector 
     5  1  1  0
     5  1  1  0
       7           -99.699437854613095              0.7083990978D+01
   current occupation vector 
     5  1  1  0
     5  1  1  0
       8           -93.905928385868464              0.7083990940D+01
   current occupation vector 
     5  1  1  0
     5  1  1  0
       9          -106.478943125030881              0.6164356396D+01
   current occupation vector 
     5  1  1  0
     5  1  1  0
      10          -110.495278261621266              0.1439298772D+01
   current occupation vector 
     5  1  1  0
     5  1  1  0
      11          -112.043355050409374              0.9055334773D+00
   current occupation vector 
     5  1  1  0
     5  1  1  0
      12          -112.209742117648361              0.8247283675D+00
   current occupation vector 
     5  1  1  0
     5  1  1  0
      13          -112.380035053407781              0.1760470818D+00
   current occupation vector 
     5  1  1  0
     5  1  1  0
      14          -112.422555256698274              0.1832804835D+00
   current occupation vector 
     5  1  1  0
     5  1  1  0
      15          -112.425245138543502              0.6453971116D-01
   current occupation vector 
     5  1  1  0
     5  1  1  0
      16          -112.428608282770256              0.1100081743D+00
   current occupation vector 
     5  1  1  0
     5  1  1  0
      17          -112.431474235348432              0.1398769134D+00
   current occupation vector 
     5  1  1  0
     5  1  1  0
      18          -112.432101502688852              0.8249735197D-01
   current occupation vector 
     5  1  1  0
     5  1  1  0
      19          -112.432103194906091              0.7968114965D-02
   current occupation vector 
     5  1  1  0
     5  1  1  0
      20          -112.432104984263376              0.6141930234D-02
   current occupation vector 
     5  1  1  0
     5  1  1  0
      21          -112.432105066366802              0.1399326448D-02
   current occupation vector 
     5  1  1  0
     5  1  1  0
      22          -112.432105074264214              0.3488468932D-03
   current occupation vector 
     5  1  1  0
     5  1  1  0
      23          -112.432105074288330              0.1026189190D-04
   current occupation vector 
     5  1  1  0
     5  1  1  0
      24          -112.432105074288600              0.4636914516D-05
   current occupation vector 
     5  1  1  0
     5  1  1  0
      25          -112.432105074289481              0.1412559022D-05
   current occupation vector 
     5  1  1  0
     5  1  1  0
      26          -112.432105074289112              0.8130684808D-06
   current occupation vector 
     5  1  1  0
     5  1  1  0
      27          -112.432105074289098              0.1774497158D-06
   current occupation vector 
     5  1  1  0
     5  1  1  0
      28          -112.432105074288657              0.4891120575D-07
   current occupation vector 
     5  1  1  0
     5  1  1  0
      29          -112.432105074288614              0.3771374324D-08
   current occupation vector 
     5  1  1  0
     5  1  1  0
      30          -112.432105074289467              0.1643180259D-08
   current occupation vector 
     5  1  1  0
     5  1  1  0
      31          -112.432105074289311              0.1356366131D-09
   current occupation vector 
     5  1  1  0
     5  1  1  0
      32          -112.432105074288899              0.5704028361D-09
   current occupation vector 
     5  1  1  0
     5  1  1  0

  SCF has converged.

 Density matrix saved to file den.dat
 total electron number:   14.0000000000002     
     E(SCF)=      -112.432105074288870              0.6952438625D-10

  Eigenvector printing suppressed.

 @PUTMOS-I, Writing converged MOs to NEWMOS. 
 @PUTMOS-I, Symmetry   1 Full Blocks 21 Partial Blocksize   2
 @PUTMOS-I, Symmetry   2 Full Blocks 13 Partial Blocksize   0
 @PUTMOS-I, Symmetry   3 Full Blocks 13 Partial Blocksize   0
 @PUTMOS-I, Symmetry   4 Full Blocks  7 Partial Blocksize   0
 @PUTFOCK-I, Writing converged Fock matrix to NEWFOCK. 
 @PUTFOCK-I, Symmetry   1 Full Blocks 21 Partial Blocksize   2
 @PUTFOCK-I, Symmetry   2 Full Blocks 13 Partial Blocksize   0
 @PUTFOCK-I, Symmetry   3 Full Blocks 13 Partial Blocksize   0
 @PUTFOCK-I, Symmetry   4 Full Blocks  7 Partial Blocksize   0


 
  ORBITAL EIGENVALUES (ALPHA)  (1H = 27.2113834 eV)

       MO #        E(hartree)               E(eV)           FULLSYM    COMPSYM
       ----   --------------------   --------------------   -------   ---------
    1     1         -20.6205218665        -561.1129264167     SG+        A1 (1)
    2     2         -11.5320370717        -313.8026821414     SG+        A1 (1)
    3     3          -1.2188419667         -33.1663760592     SG+        A1 (1)
    4     4          -0.8136849954         -22.1414943757     SG+        A1 (1)
    5     5          -0.4814676251         -13.1014001400     SG+        A1 (1)
    6   139          -0.4767529636         -12.9731076809      PI        B2 (3)
    7    87          -0.4767529636         -12.9731076809      PI        B1 (2)
  +++++++++++++++++++++++++++++++++++++++++++++++++++++++++++++++++++++++++++++
    8    88          -0.0281737954          -0.7666479476      PI        B1 (2)
    9   140          -0.0281737954          -0.7666479476      PI        B2 (3)
   10     6           0.0573710596           1.5611458984     SG+        A1 (1)
   11     7           0.0683078340           1.8587506591     SG+        A1 (1)
   12    89           0.0815832955           2.2199943318      PI        B1 (2)
   13   141           0.0815832955           2.2199943318      PI        B2 (3)
   14     8           0.1425760295           3.8796910023     SG+        A1 (1)
   15     9           0.1611544323           4.3852350436     SG+        A1 (1)
   16   142           0.1841007363           5.0096357193      PI        B2 (3)
   17    90           0.1841007363           5.0096357193      PI        B1 (2)
   18   191           0.2190217350           5.9598844032      DE        A2 (4)
   19    10           0.2190217350           5.9598844032      DE        A1 (1)
   20   143           0.2783354843           7.5738935783      PI        B2 (3)
   21    91           0.2783354843           7.5738935783      PI        B1 (2)
   22    11           0.2847007924           7.7471024167     SG+        A1 (1)
   23    12           0.3060965861           8.3293115606     SG+        A1 (1)
   24    13           0.4084675937          11.1149682993     SG+        A1 (1)
   25    92           0.4128776283          11.2349714398      PI        B1 (2)
   26   144           0.4128776283          11.2349714398      PI        B2 (3)
   27    14           0.5175169883          14.0823531840     SG+        A1 (1)
   28    15           0.5501415355          14.9701122475      DE        A1 (1)
   29   192           0.5501415355          14.9701122475      DE        A2 (4)
   30    93           0.6247515485          17.0003539146      PI        B1 (2)
   31   145           0.6247515485          17.0003539146      PI        B2 (3)
   32    16           0.6952300554          18.9181715896     SG+        A1 (1)
   33    94           0.7226260540          19.6636546105      PH        B1 (2)
   34   146           0.7226260540          19.6636546105      PH        B2 (3)
   35    17           0.7296481975          19.8547368500      DE        A1 (1)
   36   193           0.7296481975          19.8547368500      DE        A2 (4)
   37   147           0.7643000752          20.7976623779      PI        B2 (3)
   38    95           0.7643000752          20.7976623779      PI        B1 (2)
   39    18           0.8011491697          21.8003772164     SG+        A1 (1)
   40    19           0.8418403257          22.9076398654      DE        A1 (1)
   41   194           0.8418403257          22.9076398654      DE        A2 (4)
   42   148           0.8526863392          23.2027748952      PI        B2 (3)
   43    96           0.8526863392          23.2027748952      PI        B1 (2)
   44    20           0.9166970879          24.9445959195     SG+        A1 (1)
   45    97           1.0639234623          28.9508292405      PI        B1 (2)
   46   149           1.0639234623          28.9508292405      PI        B2 (3)
   47    21           1.1611123201          31.5954725141     SG+        A1 (1)
   48    22           1.3000735638          35.3768001917     SG+        A1 (1)
   49    98           1.4172068167          38.5641580456      PH        B1 (2)
   50   150           1.4172068167          38.5641580456      PH        B2 (3)
   51   151           1.4442315274          39.2995378094      PI        B2 (3)
   52    99           1.4442315274          39.2995378094      PI        B1 (2)
   53    23           1.5761415911          42.8889931286     SG+        A1 (1)
   54   195           1.5808680000          43.0176052534      DE        A2 (4)
   55    24           1.5808680000          43.0176052534      DE        A1 (1)
   56   100           1.6428473177          44.7041482289      PI        B1 (2)
   57   152           1.6428473177          44.7041482289      PI        B2 (3)
   58   196           1.6522403766          44.9597463555      DE        A2 (4)
   59    25           1.6522403766          44.9597463555      DE        A1 (1)
   60    26           1.8163439578          49.4252318218     SG+        A1 (1)
   61    27           1.9241428614          52.3585891177     SG+        A1 (1)
   62   101           1.9861443721          54.0457359975      PI        B1 (2)
   63   153           1.9861443721          54.0457359975      PI        B2 (3)
   64   197           2.0512872937          55.8183650124      PI        A2 (4)
   65    28           2.0512872937          55.8183650124      PI        A1 (1)
   66   198           2.1110138329          57.4436067705      DE        A2 (4)
   67    29           2.1110138329          57.4436067705      DE        A1 (1)
   68   154           2.1495110880          58.4911703390      PH        B2 (3)
   69   102           2.1495110880          58.4911703390      PH        B1 (2)
   70   103           2.1918091141          59.6421581444      PH        B1 (2)
   71   155           2.1918091141          59.6421581444      PH        B2 (3)
   72   104           2.1922852313          59.6551139517      PI        B1 (2)
   73   156           2.1922852313          59.6551139517      PI        B2 (3)
   74    30           2.2258122688          60.5674310240     SG+        A1 (1)
   75    31           2.2613696189          61.5349957077      DE        A1 (1)
   76   199           2.2613696189          61.5349957077      DE        A2 (4)
   77    32           2.3459865811          63.8375403096     SG+        A1 (1)
   78   105           2.4445378465          66.5192565760      PI        B1 (2)
   79   157           2.4445378465          66.5192565760      PI        B2 (3)
   80   200           2.5079676466          68.2452691870      DE        A2 (4)
   81    33           2.5079676466          68.2452691870      DE        A1 (1)
   82    34           2.6117032452          71.0680583331     SG+        A1 (1)
   83   158           2.6723362131          72.7179652682      PI        B2 (3)
   84   106           2.6723362131          72.7179652682      PI        B1 (2)
   85    35           2.8021711323          76.2509530335     SG+        A1 (1)
   86   159           3.1859337134          86.6936637624      PI        B2 (3)
   87   107           3.1859337134          86.6936637624      PI        B1 (2)
   88    36           3.7034426017         100.7757965359     SG+        A1 (1)
   89   201           3.7287532566         101.4645344694      PI        A2 (4)
   90    37           3.7287532566         101.4645344694      PI        A1 (1)
   91   160           3.8348340421         104.3511393950      PH        B2 (3)
   92   108           3.8348340421         104.3511393950      PH        B1 (2)
   93    38           4.0537480549         110.3080925291     SG+        A1 (1)
   94   202           4.1001278566         111.5701510954      DE        A2 (4)
   95    39           4.1001278566         111.5701510954      DE        A1 (1)
   96   109           4.1236759758         112.2109279939      PI        B1 (2)
   97   161           4.1236759758         112.2109279939      PI        B2 (3)
   98   162           4.1582971489         113.1530180111      PH        B2 (3)
   99   110           4.1582971489         113.1530180111      PH        B1 (2)
  100    40           4.2693968390         116.1761942721     SG+        A1 (1)
  101   203           4.3139236717         117.3878309881      DE        A2 (4)
  102    41           4.3139236717         117.3878309881      DE        A1 (1)
  103   111           4.4453929157         120.9652909925      PI        B1 (2)
  104   163           4.4453929157         120.9652909925      PI        B2 (3)
  105   204           4.5253860543         123.1420149561      DE        A2 (4)
  106    42           4.5253860543         123.1420149561      DE        A1 (1)
  107    43           4.7986261301         130.5772554195     SG+        A1 (1)
  108   164           4.9434066933         134.5169348347      PI        B2 (3)
  109   112           4.9434066933         134.5169348347      PI        B1 (2)
  110    44           5.1199471385         139.3208445733     SG+        A1 (1)
  111   165           5.3458147858         145.4670157212      PI        B2 (3)
  112   113           5.3458147858         145.4670157213      PI        B1 (2)
  113   205           5.8003187276         157.8346967394      PI        A2 (4)
  114    45           5.8003187276         157.8346967394      PI        A1 (1)
  115   166           5.8727179345         159.8047793163      PH        B2 (3)
  116   114           5.8727179345         159.8047793163      PH        B1 (2)
  117    46           5.8728969823         159.8096514528     SG+        A1 (1)
  118   206           6.0098228652         163.5355941523      DE        A2 (4)
  119    47           6.0098228652         163.5355941523      DE        A1 (1)
  120   167           6.0909367433         165.7428149876      PI        B2 (3)
  121   115           6.0909367433         165.7428149876      PI        B1 (2)
  122    48           6.1081883268         166.2122544401     SG+        A1 (1)
  123   207           6.2269166921         169.4430175096      DE        A2 (4)
  124    49           6.2269166921         169.4430175096      DE        A1 (1)
  125   168           6.3252721077         172.1194044315      PH        B2 (3)
  126   116           6.3252721077         172.1194044315      PH        B1 (2)
  127   208           6.4484045588         175.4700087683      DE        A2 (4)
  128    50           6.4484045588         175.4700087683      DE        A1 (1)
  129   169           6.6282268042         180.3632208323      PI        B2 (3)
  130   117           6.6282268042         180.3632208323      PI        B1 (2)
  131   170           6.8623700364         186.7345820932      PI        B2 (3)
  132   118           6.8623700364         186.7345820932      PI        B1 (2)
  133    51           6.9999479008         190.4782661091     SG+        A1 (1)
  134    52           7.3050974623         198.7818078219     SG+        A1 (1)
  135    53           9.1842957696         249.9173934468     SG+        A1 (1)
  136   119           9.5442104417         259.7111695802      PI        B1 (2)
  137   171           9.5442104417         259.7111695802      PI        B2 (3)
  138    54          10.5853334915         288.0415680553     SG+        A1 (1)
  139   209          10.6966014497         291.0693231247      PI        A2 (4)
  140    55          10.6966014497         291.0693231247      PI        A1 (1)
  141   172          10.7199849868         291.7056215171      PH        B2 (3)
  142   120          10.7199849868         291.7056215171      PH        B1 (2)
  143   210          10.8870056271         296.2504841979      DE        A2 (4)
  144    56          10.8870056271         296.2504841979      DE        A1 (1)
  145   121          11.0077402678         299.5358407959      PI        B1 (2)
  146   173          11.0077402678         299.5358407959      PI        B2 (3)
  147    57          11.0405351997         300.4282362609     SG+        A1 (1)
  148   174          11.9302239603         324.6378982311      PH        B2 (3)
  149   122          11.9302239603         324.6378982311      PH        B1 (2)
  150    58          11.9699315460         325.7183965702      DE        A1 (1)
  151   211          11.9699315460         325.7183965703      DE        A2 (4)
  152   123          12.1132076814         329.6171384228      PI        B1 (2)
  153   175          12.1132076814         329.6171384228      PI        B2 (3)
  154    59          12.3859289140         337.0382604435     SG+        A1 (1)
  155   212          12.7265243140         346.3063324566      DE        A2 (4)
  156    60          12.7265243140         346.3063324566      DE        A1 (1)
  157   176          13.0567334582         355.2917800840      PI        B2 (3)
  158   124          13.0567334582         355.2917800840      PI        B1 (2)
  159    61          13.2886033447         361.6012804627     SG+        A1 (1)
  160    62          17.0882433161         464.9947405072     SG+        A1 (1)
  161   177          18.6394414169         507.2049867584      PI        B2 (3)
  162   125          18.6394414170         507.2049867585      PI        B1 (2)
  163    63          19.2762530096         524.5335111590     SG+        A1 (1)
  164   213          26.2296192054         713.7442246329      DE        A2 (4)
  165    64          26.2296192054         713.7442246329      DE        A1 (1)
  166   126          26.3985219094         718.3403008697      PI        B1 (2)
  167   178          26.3985219094         718.3403008697      PI        B2 (3)
  168    65          26.7730114180         728.5306784665     SG+        A1 (1)
  169   127          33.2996678388         906.1300286555      PI        B1 (2)
  170   179          33.2996678388         906.1300286556      PI        B2 (3)
  171    66          33.9870013977         924.8333256482     SG+        A1 (1)
  172    67          35.4761639403         965.3554985397     SG+        A1 (1)
  173    68          47.0926510070        1281.4561818750      DE        A1 (1)
  174   214          47.0926510070        1281.4561818750      DE        A2 (4)
  175   180          47.2466840846        1285.6476350045      PI        B2 (3)
  176   128          47.2466840846        1285.6476350045      PI        B1 (2)
  177    69          47.3765294442        1289.1809068674     SG+        A1 (1)
  178    70          63.5649785193        1729.6910013024     SG+        A1 (1)
  179   181          66.2417833027        1802.5305625485      PI        B2 (3)
  180   129          66.2417833027        1802.5305625485      PI        B1 (2)
  181    71          66.7224896074        1815.6112461095     SG+        A1 (1)
  182   182          98.4931804163        2680.1356945927      PH        B2 (3)
  183   130          98.4931804163        2680.1356945927      PH        B1 (2)
  184   215          98.5101859425        2680.5984384858      DE        A2 (4)
  185    72          98.5101859425        2680.5984384858      DE        A1 (1)
  186   131          98.5256244621        2681.0185419613      PI        B1 (2)
  187   183          98.5256244621        2681.0185419613      PI        B2 (3)
  188    73          98.5314704716        2681.1776199674     SG+        A1 (1)
  189   184         103.3313055525        2811.7877726121      PI        B2 (3)
  190   132         103.3313055525        2811.7877726122      PI        B1 (2)
  191   216         103.3320849490        2811.8089810690      DE        A2 (4)
  192    74         103.3320849490        2811.8089810695      DE        A1 (1)
  193    75         103.3420677656        2812.0806273197     SG+        A1 (1)
  194   185         103.3502878457        2812.3043070703      PH        B2 (3)
  195   133         103.3502878457        2812.3043070704      PH        B1 (2)
  196   217         114.9423159817        3127.7394290616      DE        A2 (4)
  197    76         114.9423159817        3127.7394290616      DE        A1 (1)
  198   134         115.0253509115        3129.9989243736      PI        B1 (2)
  199   186         115.0253509115        3129.9989243736      PI        B2 (3)
  200    77         115.1844815750        3134.3290898674     SG+        A1 (1)
  201   135         116.6309730375        3173.6901236395      PI        B1 (2)
  202   187         116.6309730375        3173.6901236395      PI        B2 (3)
  203    78         117.2232433193        3189.8066173535     SG+        A1 (1)
  204    79         121.7316031003        3312.4853238594     SG+        A1 (1)
  205   218         198.5785953714        5403.5982936845      DE        A2 (4)
  206    80         198.5785953714        5403.5982936846      DE        A1 (1)
  207   136         198.6622477278        5405.8745900272      PI        B1 (2)
  208   188         198.6622477278        5405.8745900273      PI        B2 (3)
  209    81         198.7322407148        5407.7791960309     SG+        A1 (1)
  210    82         216.1093044141        5880.6331387201     SG+        A1 (1)
  211   189         224.7362518414        6115.3843127352      PI        B2 (3)
  212   137         224.7362518414        6115.3843127352      PI        B1 (2)
  213    83         225.1141033749        6125.6661756807     SG+        A1 (1)
  214   190         395.1927388774       10753.7411344901      PI        B2 (3)
  215   138         395.1927388774       10753.7411344903      PI        B1 (2)
  216    84         395.6512209826       10766.2170668356     SG+        A1 (1)
  217    85         508.4973639491       13836.9167283080     SG+        A1 (1)
  218    86         894.9208447700       24352.0342196883     SG+        A1 (1)


  VSCF finished.

 @CHECKOUT-I, Total execution time (CPU/WALL):       57.59/      10.33 seconds.
--executable xvscf finished with status     0 in       10.38 seconds (walltime).
 --invoking executable--
/nfs/workspaces/public/cfour_mpi/bin/xvtran
 @GETMEM-I,  Allocated    3814 MB of main memory.
  Full RHF integral transformation
  Transformation of IIII integrals :
  1 pass through the AO integral file was required.
     4349395 AO integrals were read.
     8573163 MO integrals were written to HF2.
  Transformation of IIJJ integrals :
  1 pass through the AO integral file was required.
     9883510 AO integrals were read.
    14293064 MO integrals were written to HF2.
  Transformation of IJIJ integrals :
  1 pass through the AO integral file was required.
    18763966 AO integrals were read.
    26586332 MO integrals were written to HF2.
  Transformation of IJKL integrals :
  1 pass through the AO integral file was required.
    13837102 AO integrals were read.
    18003189 MO integrals were written to HF2.
  Summary of active molecular orbitals: 
------------------------------------------------------------------------
 
  Index      Eigenvalue    Symmetry    Index      Eigenvalue    Symmetry
------------------------------------------------------------------------
     1       -20.6205219        1       110         4.1236760        2
     2       -11.5320371        1       111         4.1582971        2
     3        -1.2188420        1       112         4.4453929        2
     4        -0.8136850        1       113         4.9434067        2
     5        -0.4814676        1       114         5.3458148        2
     6        -0.4767530        2       115         5.8727179        2
     7        -0.4767530        3       116         6.0909367        2
     8         0.0573711        1       117         6.3252721        2
     9         0.0683078        1       118         6.6282268        2
    10         0.1425760        1       119         6.8623700        2
    11         0.1611544        1       120         9.5442104        2
    12         0.2190217        1       121        10.7199850        2
    13         0.2847008        1       122        11.0077403        2
    14         0.3060966        1       123        11.9302240        2
    15         0.4084676        1       124        12.1132077        2
    16         0.5175170        1       125        13.0567335        2
    17         0.5501415        1       126        18.6394414        2
    18         0.6952301        1       127        26.3985219        2
    19         0.7296482        1       128        33.2996678        2
    20         0.8011492        1       129        47.2466841        2
    21         0.8418403        1       130        66.2417833        2
    22         0.9166971        1       131        98.4931804        2
    23         1.1611123        1       132        98.5256245        2
    24         1.3000736        1       133       103.3313056        2
    25         1.5761416        1       134       103.3502878        2
    26         1.5808680        1       135       115.0253509        2
    27         1.6522404        1       136       116.6309730        2
    28         1.8163440        1       137       198.6622477        2
    29         1.9241429        1       138       224.7362518        2
    30         2.0512873        1       139       395.1927389        2
    31         2.1110138        1       140        -0.0281738        3
    32         2.2258123        1       141         0.0815833        3
    33         2.2613696        1       142         0.1841007        3
    34         2.3459866        1       143         0.2783355        3
    35         2.5079676        1       144         0.4128776        3
    36         2.6117032        1       145         0.6247515        3
    37         2.8021711        1       146         0.7226261        3
    38         3.7034426        1       147         0.7643001        3
    39         3.7287533        1       148         0.8526863        3
    40         4.0537481        1       149         1.0639235        3
    41         4.1001279        1       150         1.4172068        3
    42         4.2693968        1       151         1.4442315        3
    43         4.3139237        1       152         1.6428473        3
    44         4.5253861        1       153         1.9861444        3
    45         4.7986261        1       154         2.1495111        3
    46         5.1199471        1       155         2.1918091        3
    47         5.8003187        1       156         2.1922852        3
    48         5.8728970        1       157         2.4445378        3
    49         6.0098229        1       158         2.6723362        3
    50         6.1081883        1       159         3.1859337        3
    51         6.2269167        1       160         3.8348340        3
    52         6.4484046        1       161         4.1236760        3
    53         6.9999479        1       162         4.1582971        3
    54         7.3050975        1       163         4.4453929        3
    55         9.1842958        1       164         4.9434067        3
    56        10.5853335        1       165         5.3458148        3
    57        10.6966014        1       166         5.8727179        3
    58        10.8870056        1       167         6.0909367        3
    59        11.0405352        1       168         6.3252721        3
    60        11.9699315        1       169         6.6282268        3
    61        12.3859289        1       170         6.8623700        3
    62        12.7265243        1       171         9.5442104        3
    63        13.2886033        1       172        10.7199850        3
    64        17.0882433        1       173        11.0077403        3
    65        19.2762530        1       174        11.9302240        3
    66        26.2296192        1       175        12.1132077        3
    67        26.7730114        1       176        13.0567335        3
    68        33.9870014        1       177        18.6394414        3
    69        35.4761639        1       178        26.3985219        3
    70        47.0926510        1       179        33.2996678        3
    71        47.3765294        1       180        47.2466841        3
    72        63.5649785        1       181        66.2417833        3
    73        66.7224896        1       182        98.4931804        3
    74        98.5101859        1       183        98.5256245        3
    75        98.5314705        1       184       103.3313056        3
    76       103.3320849        1       185       103.3502878        3
    77       103.3420678        1       186       115.0253509        3
    78       114.9423160        1       187       116.6309730        3
    79       115.1844816        1       188       198.6622477        3
    80       117.2232433        1       189       224.7362518        3
    81       121.7316031        1       190       395.1927389        3
    82       198.5785954        1       191         0.2190217        4
    83       198.7322407        1       192         0.5501415        4
    84       216.1093044        1       193         0.7296482        4
    85       225.1141034        1       194         0.8418403        4
    86       395.6512210        1       195         1.5808680        4
    87       508.4973639        1       196         1.6522404        4
    88       894.9208448        1       197         2.0512873        4
    89        -0.0281738        2       198         2.1110138        4
    90         0.0815833        2       199         2.2613696        4
    91         0.1841007        2       200         2.5079676        4
    92         0.2783355        2       201         3.7287533        4
    93         0.4128776        2       202         4.1001279        4
    94         0.6247515        2       203         4.3139237        4
    95         0.7226261        2       204         4.5253861        4
    96         0.7643001        2       205         5.8003187        4
    97         0.8526863        2       206         6.0098229        4
    98         1.0639235        2       207         6.2269167        4
    99         1.4172068        2       208         6.4484046        4
   100         1.4442315        2       209        10.6966014        4
   101         1.6428473        2       210        10.8870056        4
   102         1.9861444        2       211        11.9699315        4
   103         2.1495111        2       212        12.7265243        4
   104         2.1918091        2       213        26.2296192        4
   105         2.1922852        2       214        47.0926510        4
   106         2.4445378        2       215        98.5101859        4
   107         2.6723362        2       216       103.3320849        4
   108         3.1859337        2       217       114.9423160        4
   109         3.8348340        2       218       198.5785954        4
------------------------------------------------------------------------
  -20.6205218664732       -11.5320370717132       -1.21884196667638     
 -0.813684995364674      -0.481467625052432      -0.476752963646158     
 -0.476752963646158       5.737105958295134E-002  6.830783395783217E-002
  0.142576029499081       0.161154432289497       0.219021734971595     
  0.284700792415190       0.306096586054287       0.408467593724351     
  0.517516988276145       0.550141535525543       0.695230055433213     
  0.729648197524246       0.801149169667329       0.841840325745445     
  0.916697087863978        1.16111232014958        1.30007356375940     
   1.57614159111962        1.58086800002362        1.65224037655784     
   1.81634395779197        1.92414286139234        2.05128729370073     
   2.11101383292600        2.22581226884530        2.26136961885357     
   2.34598658110256        2.50796764662152        2.61170324523268     
[...]
 Perturbed amplitude equations converged in    23 iterations.
  Dominant contributions to perturbed wavefunction:
    7    0   46    0   0.3886001772 AA  
    7    0   22    0   0.3279876543 AA  
    7    0   32    0   0.2636344356 AA  
    7    0   36    0   0.2457791692 AA  
    7    0   28    0   0.2415751326 AA  
    7    7  140   46  -0.2344262429 ABAB
    7    7   46  140  -0.2344262429 ABAB
    7    0   54    0  -0.2314367660 AA  
    7    0   16    0  -0.2303102306 AA  
    7    7  140   22  -0.2243045908 ABAB
    7    7   22  140  -0.2243045908 ABAB
    7    0   25    0   0.2124292039 AA  
    7    0   37    0   0.2083225847 AA  
    7    0   56    0   0.2022095872 AA  
    7    0   24    0   0.1952534466 AA  
    7    7  140   32  -0.1877989471 ABAB
    7    7   32  140  -0.1877989471 ABAB
    7    0   63    0   0.1845761334 AA  
    7    0   38    0   0.1747420259 AA  
    7    0   40    0   0.1695299499 AA  
  norm of converged amps    1.57387343462256     
 Starting iterative solution of the perturbed Lambda equations.
 The DIIS procedure is used to accelerate convergence.
 Convergence criterion is 10**(-7).
 Maximum number of iterations is 100.
 Convergence information after     1 iterations: 
 Largest element of residual vector :  0.74588070E-01.
 Largest element of DIIS residual   :  0.74588070E-01.
 Convergence information after     2 iterations: 
 Largest element of residual vector :  0.20533637E-01.
 Largest element of DIIS residual   :  0.14790515E-01.
 Convergence information after     3 iterations: 
 Largest element of residual vector :  0.70670920E-02.
 Largest element of DIIS residual   :  0.56699064E-02.
 Convergence information after     4 iterations: 
 Largest element of residual vector :  0.27837388E-02.
 Largest element of DIIS residual   :  0.27013258E-02.
 Convergence information after     5 iterations: 
 Largest element of residual vector :  0.28022899E-02.
 Largest element of DIIS residual   :  0.24981931E-02.
 Convergence information after     6 iterations: 
 Largest element of residual vector :  0.17593127E-02.
 Largest element of DIIS residual   :  0.10100469E-02.
 Convergence information after     7 iterations: 
 Largest element of residual vector :  0.10813263E-02.
 Largest element of DIIS residual   :  0.51632451E-03.
 Convergence information after     8 iterations: 
 Largest element of residual vector :  0.40550781E-03.
 Largest element of DIIS residual   :  0.19253110E-03.
 Convergence information after     9 iterations: 
 Largest element of residual vector :  0.15602610E-03.
 Largest element of DIIS residual   :  0.99916702E-04.
 Convergence information after    10 iterations: 
 Largest element of residual vector :  0.11927918E-03.
 Largest element of DIIS residual   :  0.90136628E-04.
 Convergence information after    11 iterations: 
 Largest element of residual vector :  0.50698882E-04.
 Largest element of DIIS residual   : -0.23806785E-04.
 Convergence information after    12 iterations: 
 Largest element of residual vector :  0.37711098E-04.
 Largest element of DIIS residual   :  0.19404365E-04.
 Convergence information after    13 iterations: 
 Largest element of residual vector :  0.11845615E-04.
 Largest element of DIIS residual   :  0.83642858E-05.
 Convergence information after    14 iterations: 
 Largest element of residual vector :  0.10159818E-04.
 Largest element of DIIS residual   :  0.48231871E-05.
 Convergence information after    15 iterations: 
 Largest element of residual vector :  0.57505334E-05.
 Largest element of DIIS residual   :  0.31725150E-05.
 Convergence information after    16 iterations: 
 Largest element of residual vector :  0.23599379E-05.
 Largest element of DIIS residual   :  0.75299287E-06.
 Convergence information after    17 iterations: 
 Largest element of residual vector :  0.14621921E-05.
 Largest element of DIIS residual   :  0.74154094E-06.
 Convergence information after    18 iterations: 
 Largest element of residual vector :  0.38489881E-06.
 Largest element of DIIS residual   :  0.22276315E-06.
 Convergence information after    19 iterations: 
 Largest element of residual vector :  0.35010244E-06.
 Largest element of DIIS residual   :  0.18586557E-06.
 Convergence information after    20 iterations: 
 Largest element of residual vector :  0.14044472E-06.
 Largest element of DIIS residual   :  0.10475444E-06.
 Convergence information after    21 iterations: 
 Largest element of residual vector :  0.12023892E-06.
 Largest element of DIIS residual   :  0.46424188E-07.
 Perturbed Lambda equations converged in    21 iterations.
  Dominant contributions to perturbed wavefunction:
    7    7  140   46  -0.1406671745 ABAB
    7    7   46  140  -0.1406671745 ABAB
    7    7  140   22  -0.1384725471 ABAB
    7    7   22  140  -0.1384725471 ABAB
    7    0   46    0   0.1186733481 AA  
    7    7  140   32  -0.1167171710 ABAB
    7    7   32  140  -0.1167171710 ABAB
    7    0   22    0   0.0945484281 AA  
    7    7  140   36  -0.0933842185 ABAB
    7    7   36  140  -0.0933842185 ABAB
    7    6   46   89  -0.0913260895 ABAB
    6    7   89   46  -0.0913260895 ABAB
    7    6   22   89  -0.0888601500 ABAB
    6    7   89   22  -0.0888601500 ABAB
    7    7  140   16   0.0873339065 ABAB
    7    7   16  140   0.0873339065 ABAB
    7    5   46   10  -0.0826895356 ABAB
    5    7   10   46  -0.0826895356 ABAB
    7    7  140   56  -0.0823793920 ABAB
    7    7   56  140  -0.0823793920 ABAB
        The DBOC first-order density matrix is being calculated 
             (Symmetry block 3, perturbation   2)
 term   2.65540731856598     
 final tnorm  0.593439247443431     
  norm contr. I: |<0|L dT/dx|0>|^2   0.000000000000000E+000
  norm contr. II: <0|[nabla(1+L)e-T][nabla e^T]|0>   2.65540731856598     
  total norm contribution   2.65540731856598     
 oo  1.298791070387075E-002
 vv  -17.6184176891855     
 vo -5.201376840648802E-002
  Correlated perturbed 1-el contribution to DBOC  -17.6574435468882       cm**-1
  SUM_I |dc_I/dx|^2 contribution to DBOC   8.88339635445699       cm**-1
 
 
  The total diagonal Born-Oppenheimer correction (DBOC) is:      0.0038624269 a.u.
  The total diagonal Born-Oppenheimer correction (DBOC) is:        847.704728 cm-1
 
 Total CC energy including DBOC  -112.990606953473     
 First-order density matrix is being calculated  (Symmetry block 3, perturbation   2)
 Calculation of the contributions of <pq||rs> to dI(i,j)/dx required   2.8 seconds.
 Calculation of the contributions of <pq||rs> to dI(a,b)/dx required  15.0 seconds.
 Calculation of the contributions of <pq||rs> to dI(i,a)/dx required   9.1 seconds.
 First-order Z-vector equations are solved for 1 perturbation.
 Convergence reached after  20 iterations.
        U*G(pq,rs) contribution is being calculated
             (Symmetry block 3, perturbation   2)

 CCSD contribution to force constants 

        0.0000000000        0.0000000000        0.0000000000
        0.0000000000        0.0000000000        0.0000000000
        0.0000000000        0.0000000000        0.0000000000
        0.0000000000        0.0000000000        0.0000000000
        0.0000000000        0.0000000000        0.0000000000
        0.0000000000        0.0000000000        0.0000000000
        0.0000000000        0.0000000000        0.0000000000
        0.0000000000        0.0000000000        0.0000000000
        0.0000000000        0.0000000000        0.0000000000
        0.0000000000        0.0000000000        0.0000000000
        0.0000000000        0.0000000000        0.0000000000
        0.0000000000      -12.4393984505       12.4393984505

 CCSD contribution to dipole derivatives 

        0.0000000000        0.0000000000        0.0000000000
        0.0000000000        0.0000000000        0.0000000000
        0.0000000000        0.0000000000        0.0000000000
        0.0000000000        0.0000000000       -0.0538175971
        0.0000000000        0.0000000000        0.0000000000
        0.0000000000        0.0000000000        0.0000000000
 @CHECKOUT-I, Total execution time (CPU/WALL):     1309.45/     517.87 seconds.
--executable xsdcc finished with status     0 in      518.06 seconds (walltime).
 --invoking executable--
/nfs/workspaces/public/cfour_mpi/bin/xanti
 @GETMEM-I,  Allocated    3814 MB of main memory.
 CCSD MO derivative gammas will be sorted to Mulliken order.
 @CHECKOUT-I, Total execution time (CPU/WALL):       11.71/      20.07 seconds.
--executable xanti finished with status     0 in       20.21 seconds (walltime).
 --invoking executable--
/nfs/workspaces/public/cfour_mpi/bin/xbcktrn
 @GETMEM-I,  Allocated    3814 MB of main memory.
 CCSD MO derivative gammas will be transformed to the AO basis.
 @CHECKOUT-I, Total execution time (CPU/WALL):       20.10/      11.37 seconds.
--executable xbcktrn finished with status     0 in       11.43 seconds (walltime).
 --invoking executable--
/nfs/workspaces/public/cfour_mpi/bin/xvdint
 @GETMEM-I,  Allocated    3814 MB of main memory.
 One- and two-electron integral derivatives are calculated
 for RHF-CC/MBPT hessians and dipole derivatives.
 Spherical gaussians are used.
  magnet F F
                    8722  records have been written to the Sort file.
  Total length of Sort file :             178609116  words.
 Evaluation of 2el integral derivatives

                      Two-electron integral gradient
                      ------------------------------

                         C #1 z     0.0000000000
                         O #2 z     0.0000000000


 C #1       0.0000000000            0.0499724527            0.0000000000
 O #2       0.0000000000           -0.0499724527            0.0000000000


 Evaluation of 2e integral derivatives required  287.52 seconds.
  contribution to Hessian
        0.0000000000        0.0000000000        0.0000000000
        0.0000000000        0.0499724527       -0.0499724527
 @CHECKOUT-I, Total execution time (CPU/WALL):      287.51/      62.61 seconds.
--executable xvdint finished with status     0 in       62.76 seconds (walltime).
 --invoking executable--
/nfs/workspaces/public/cfour_mpi/bin/xanti
 @GETMEM-I,  Allocated    3814 MB of main memory.
 CCSD MO gammas will be sorted to Mulliken order.
 @CHECKOUT-I, Total execution time (CPU/WALL):       16.56/      42.16 seconds.
--executable xanti finished with status     0 in       42.28 seconds (walltime).
 --invoking executable--
/nfs/workspaces/public/cfour_mpi/bin/xbcktrn
 @GETMEM-I,  Allocated    3814 MB of main memory.
 CCSD MO gammas will be transformed to the AO basis.
 @CHECKOUT-I, Total execution time (CPU/WALL):       40.38/       9.93 seconds.
--executable xbcktrn finished with status     0 in       10.01 seconds (walltime).
 --invoking executable--
/nfs/workspaces/public/cfour_mpi/bin/xvdint
 @GETMEM-I,  Allocated    3814 MB of main memory.
 One- and two-electron integral derivatives are calculated
 for RHF-CC/MBPT hessians and dipole derivatives.
 Spherical gaussians are used.
  magnet F F

                     Kinetic energy integral gradient
                     --------------------------------

                         C #1 z    -0.3461282799
                         O #2 z     0.3461282799


 C #1       0.0000000000            0.0000000000           -0.3461282799
 O #2       0.0000000000            0.0000000000            0.3461282799



                   Nuclear attraction integral gradient
                   ------------------------------------

                         C #1 z    11.0705818577
                         O #2 z   -11.0705818577


 C #1       0.0000000000            0.0000000000           11.0705818577
 O #2       0.0000000000            0.0000000000          -11.0705818577



                      Reorthonormalization gradient
                      -----------------------------

                         C #1 z     0.0000000000
                         O #2 z     0.0000000000


 C #1       0.0000000000            0.0000000000            0.0000000000
 O #2       0.0000000000            0.0000000000            0.0000000000



                     Kinetic energy integral Hessian
                     -------------------------------


           Symmetry 1

           C #1 z      O #2 z

 C #1 z    0.370576
 O #2 z   -0.370576    0.370576


           Symmetry 2

           C #1 x      O #2 x

 C #1 x   -0.217467
 O #2 x    0.217467   -0.217467


           Symmetry 3

           C #1 y      O #2 y

 C #1 y   -0.217467
 O #2 y    0.217467   -0.217467




           C #1 x      C #1 y      C #1 z      O #2 x      O #2 y      O #2 z

 C #1 x   -0.217467
 C #1 y    0.000000   -0.217467
 C #1 z    0.000000    0.000000    0.370576

 O #2 x    0.217467    0.000000    0.000000   -0.217467
 O #2 y    0.000000    0.217467    0.000000    0.000000   -0.217467
 O #2 z    0.000000    0.000000   -0.370576    0.000000    0.000000    0.370576




                   Nuclear attraction integral Hessian
                   -----------------------------------


           Symmetry 1

           C #1 z      O #2 z

 C #1 z   -6.480452
 O #2 z    6.480452   -6.480452


           Symmetry 2

           C #1 x      O #2 x

 C #1 x    4.948632
 O #2 x   -4.948632    4.948632


           Symmetry 3

           C #1 y      O #2 y

 C #1 y    4.948632
 O #2 y   -4.948632    4.948632




           C #1 x      C #1 y      C #1 z      O #2 x      O #2 y      O #2 z

 C #1 x    4.948632
 C #1 y    0.000000    4.948632
 C #1 z    0.000000    0.000000   -6.480452

 O #2 x   -4.948632    0.000000    0.000000    4.948632
 O #2 y    0.000000   -4.948632    0.000000    0.000000    4.948632
 O #2 z    0.000000    0.000000    6.480452    0.000000    0.000000   -6.480452




                Highest order reorthonormalization Hessian
                ------------------------------------------


           Symmetry 1

           C #1 z      O #2 z

 C #1 z    0.000000
 O #2 z    0.000000    0.000000


           Symmetry 2

           C #1 x      O #2 x

 C #1 x    0.000000
 O #2 x    0.000000    0.000000


           Symmetry 3

           C #1 y      O #2 y

 C #1 y    0.000000
 O #2 y    0.000000    0.000000




           C #1 x      C #1 y      C #1 z      O #2 x      O #2 y      O #2 z




                Electronic contributions to dipole moment
                -----------------------------------------

                               au             Debye

                    z     -0.74892747     -1.90358408

  Conversion factor used: 1 a.u. =   2.54174691 Debye 



   Electronic contributions to static part of dipole moment derivatives
   --------------------------------------------------------------------


                     Total dipole moment derivatives
                     -------------------------------


           Symmetry 1
                              Ez

               C #1 z    -5.65300631
               O #2 z    -8.34699369

           Symmetry 2
                              Ex

               C #1 x    -5.70275512
               O #2 x    -8.29724488

           Symmetry 3
                              Ey

               C #1 y    -5.70275512
               O #2 y    -8.29724488



                       Ex          Ey          Ez

      C #1    x   -5.702755    0.000000    0.000000
      C #1    y    0.000000   -5.702755    0.000000
      C #1    z    0.000000    0.000000   -5.653006

      O #2    x   -8.297245    0.000000    0.000000
      O #2    y    0.000000   -8.297245    0.000000
      O #2    z    0.000000    0.000000   -8.346994

 Evaluation of 1e integral derivatives required    1.67 seconds.
                    8815  records have been written to the Sort file.
  Total length of Sort file :             180513570  words.
 Evaluation of 2el integral derivatives

                      Two-electron integral gradient
                      ------------------------------

                         C #1 z    -6.1007737479
                         O #2 z     6.1007737479


 C #1       0.0000000000            0.0000000000           -6.1007737479
 O #2       0.0000000000            0.0000000000            6.1007737479


 Evaluation of 2e integral derivatives required  598.43 seconds.

                            Molecular gradient
                            ------------------

                         C #1 z     0.4751108942
                         O #2 z    -0.4751108942


 C #1       0.0000000000            0.0000000000            0.4751108942
 O #2       0.0000000000            0.0000000000           -0.4751108942


  Molecular gradient norm 0.672E+00

                            Molecular hessian
                            -----------------


           Symmetry 1

           C #1 z      O #2 z

 C #1 z    5.515934
 O #2 z   -5.515934    5.515934


           Symmetry 2

           C #1 x      O #2 x

 C #1 x   12.605767
 O #2 x  -12.605767   12.605767


           Symmetry 3

           C #1 y      O #2 y

 C #1 y   12.605767
 O #2 y  -12.605767   12.605767




           C #1 x      C #1 y      C #1 z      O #2 x      O #2 y      O #2 z

 C #1 x   12.605767
 C #1 y    0.000000   12.605767
 C #1 z    0.000000    0.000000    5.515934

 O #2 x  -12.605767    0.000000    0.000000   12.605767
 O #2 y    0.000000  -12.605767    0.000000    0.000000   12.605767
 O #2 z    0.000000    0.000000   -5.515934    0.000000    0.000000    5.515934




                           Total dipole moment
                           -------------------

                               au             Debye

                    z      0.61114244      1.55336942

  Conversion factor used: 1 a.u. =   2.54174691 Debye 



                     Total dipole moment derivatives
                     -------------------------------


           Symmetry 1
                              Ez

               C #1 z     0.28982222
               O #2 z    -0.28982222

           Symmetry 2
                              Ex

               C #1 x     0.19642897
               O #2 x    -0.19642897

           Symmetry 3
                              Ey

               C #1 y     0.19642897
               O #2 y    -0.19642897



                       Ex          Ey          Ez

      C #1    x    0.196429    0.000000    0.000000
      C #1    y    0.000000    0.196429    0.000000
      C #1    z    0.000000    0.000000    0.289822

      O #2    x   -0.196429    0.000000    0.000000
      O #2    y    0.000000   -0.196429    0.000000
      O #2    z    0.000000    0.000000   -0.289822

 @CHECKOUT-I, Total execution time (CPU/WALL):      600.09/     108.19 seconds.
--executable xvdint finished with status     0 in      108.38 seconds (walltime).
 --invoking executable--
/nfs/workspaces/public/cfour_mpi/bin/xjoda
  @GTFLGS-I, Hessian will be transformed to curvilinear coordinates.
  @GTFLGS-I, Hessian will be transformed to curvilinear coordinates.
  igrd and ihes are                      0                     1
  gradient from JOBARC 
   0.000000000000000   0.000000000000000   0.475110894157346
   0.000000000000000   0.000000000000000  -0.475110894157346
 
  @PROJFCM-I, Projecting force constant matrix onto totally symmetric subspace.
  Largest difference between matrix elements of symmetrized
  and unsymmetrized FCM :    -0.2344791028E-12.
  read isotopes from ZMAT file 
 
  Summary of diagonal Born-Oppenheimer correction at the correlated level
  The total diagonal Born-Oppenheimer correction (DBOC) is:      0.0038624269 a.u.
  The total diagonal Born-Oppenheimer correction (DBOC) is:        847.704728 cm-1
  The total diagonal Born-Oppenheimer correction (DBOC) is:            10.141 kJ/mole
  hellooooooo 
  readis is  F
 
 @CHECKOUT-I, Total execution time (CPU/WALL):        0.02/       0.09 seconds.
--executable xjoda finished with status     0 in        0.15 seconds (walltime).
  The final electronic energy is      -112.990606953473460 a.u. 
  This computation required                         3855.47 seconds (walltime).
