 --invoking executable--
/nfs/workspaces/public/cfour_mpi/bin/xjoda


   *************************************************************************
         <<<     CCCCCC     CCCCCC   |||     CCCCCC     CCCCCC   >>>
       <<<      CCC        CCC       |||    CCC        CCC         >>>
      <<<      CCC        CCC        |||   CCC        CCC            >>>
    <<<        CCC        CCC        |||   CCC        CCC              >>>
      <<<      CCC        CCC        |||   CCC        CCC            >>>
       <<<      CCC        CCC       |||    CCC        CCC         >>>
         <<<     CCCCCC     CCCCCC   |||     CCCCCC     CCCCCC   >>>
   *************************************************************************

     ****************************************************************
     * CFOUR Coupled-Cluster techniques for Computational Chemistry *
     ****************************************************************
 

   Department of Chemistry                Institut fuer Physikalische Chemie
   University of Florida                  Universitaet Mainz
   Gainesville, FL 32611, USA             D-55099 Mainz, Germany

   Department of Chemistry                Fakultaet fuer Chemie und Biowiss.
   Johns Hopkins University               Karlsruher Institut fuer Technologie
   Baltimore, MD 21218, USA               D-76131 Karlsruhe, Germany

   Department of Chemistry                Department of Physical Chemistry
   Southern Methodist University          Eotvos Lorand University
   Dallas, TX 75275, USA                  H-1053 Budapest, Hungary

 
                       Version 2.1
 
                     vincent.theory.phys.ucl.ac.uk                     
                     Tue  4 Mar 02:13:28 GMT 2025                      
                     integer*8 version is running
 
********************************************************************************
*                          Input from ZMAT file                                *
********************************************************************************
Carbon Monoxide DBOC calculation                                                
C                                                                               
O 1 r                                                                           
                                                                                
r=1.8                                                                           
                                                                                
                                                                                
*CFOUR(CALC=CCSD,BASIS=AUG-PCVQZ,SCF_CONV=10                                    
CC_CONV=14,DBOC=ON,MEMORY=500000000                                             
ZFIELD=-200)                                                                    
                                                                                
%isotopes                                                                       
12                                                                              
18                                                                              
********************************************************************************
  @GTFLGS-I, Hessian will be transformed to curvilinear coordinates.
    -------------------------------------------------------------------
                    CFOUR Control Parameters 
    -------------------------------------------------------------------
        External           Internal           Value            Units
          Name               Name
    -------------------------------------------------------------------
       ABCDTYPE             IABCDT         STANDARD    [  0]    ***   
       ANHARMONIC           IANHAR         OFF         [  0]    ***   
       ANH_ALGORIT          IANALG         STANDARD    [  0]    ***   
       ANH_DERIVAT          IANDER         SECOND      [  1]    ***   
       ANH_MODE             ANHMOD         VIBRATION   [  0]    ***   
       ANH_STEPSIZ          ICUBST             50000          x 10-6  
       ANH_SYMMETR          IANHSM         ABELIAN     [  0]    ***   
       AO_LADDERS           IAOLAD         SINGLEPASS  [  1]    ***   
       AV_SCF               IAVSCF         OFF         [  0]    ***   
       BASIS                IBASIS         AUG-PCVQZ   [ 52]    ***   
       BOTHVECTORS          BOTHVC         OFF         [  0]    ***   
       BOX_POTENT           IPIAB          OFF         [  0]    ***   
       BREIT                IBREIT         OFF         [  0]    ***   
       BRUCK_CONV           IBRTOL          10D-  4             ***   
       BRUECKNER            IBRKNR         OFF         [  0]    ***   
       BUFFERSIZE           IBUFFS              4096            ***   
       CACHE_RECS           ICHREC             10               ***   
       CALCLEVEL            ICLLVL         CCSD        [ 10]    ***   
       CCORBOPT             ICCORB         OFF         [  0]  x 0.01  
       CC_CONV              ICCCNV          10D- 14             ***   
       CC_EXPORDER          ICCEOR              5               ***   
       CC_EXTRAPOL          ICCEXT         DIIS        [  1]    ***   
       CC_GUESS             ICCGES         MP2         [  0]    ***   
       CC_MAXCYC            ICCCYC            100              cycles 
       CC_PROGRAM           ICCPRO         VCC         [  0]    ***   
       CHARGE               ICHRGE              0               ***   
       CHOLESKY             ICHOLE         OFF         [  0]    ***   
       CIS_CONV             ICISTL              5               ***   
       COMM_SIZE            IPSIZE            ***               ***   
       CONSTANT             ICONST         OLD         [  1]    ***   
       CONTINUUM            ICONTU         NONE        [  0]    ***   
       CONTRACTION          ICNTYP         GENERAL     [  1]    ***   
       COORDINATES          ICOORD         INTERNAL    [  0]    ***   
       CPHF_CONVER          ICPHFT          10D- 16             ***   
       CPHF_MAXCYC          ICPHFC             64              cycles 
       CUBIC                ICUBIC         OFF         [  0]    ***   
       CURVILINEAR          ICURVY         ON          [  1]    ***   
       DBOC                 IDBOC          ON          [  1]    ***   
       DCT                  IDCT           OFF         [  0]    ***   
       DERIV_LEV            IDRLVL         SECOND      [  2]    ***   
       DEVMEM_SIZE          IDVMEM          50000000           MByte  
       DIAG_MRCC            IEOMST          10D-  0             ***   
       DIFF_TYPE            IDIFTY         RELAXED     [  0]    ***   
       DIRECT               IDIRCT         OFF         [  0]    ***   
       DROPMO               IDRPMO      NONE         
       ECP                  IECP           OFF         [  0]    ***   
       EIGENVECTOR          IVEC                1               ***   
       EL_ANHARM            IELANH         OFF         [  0]    ***   
       EOMFOLLOW            IEOMSR         ENERGY      [  0]    ***   
       EOMIP                IEOMIP         OFF         [  0]    ***   
       EOMLEVEL             HBARFM         SAME        [  0]    ***   
       EOM_MRCC             IMRCCE         NEW         [  1]    ***   
       EOM_NONIT            EOMNON         OFF         [  0]    ***   
       EOM_NSING            IEOMSI          10D-  0             ***   
       EOM_NSTATES          IMRCCD         DAVIDSON    [  0]    ***   
       EOM_NTRIP            IEOMTR          10D-  0             ***   
       EOM_ORDER            IEXORD         ENERGY      [  0]    ***   
       EOM_PROPSTA          IEOMST              0               ***   
       ESTATE_CONV          IEXTOL          10D-  5             ***   
       ESTATE_DIAG          IEXDIG         ITERATIVE   [  0]    ***   
       ESTATE_LOCK          IESLOC         ON          [  1]    ***   
       ESTATE_MAXC          IEXMXC             40               ***   
       ESTATE_PROP          IEXPRP         OFF         [  0]    ***   
       EVAL_HESS            IRECAL              0            # of cyc.
       EXCITATION           IEXCIT              0               ***   
       EXCITE               IEXCIT         NONE        [  0]    ***   
       EXTERN_POT           IEXPOT         OFF         [  0]    ***   
       FCGRADNEW            IFCGNW         OFF         [  0]    ***   
       FC_FIELD             IFINFC              0             x 10-6  
       FD_CALTYPE           IFDCAL         GRADONLY    [  0]    ***   
       FD_PROJECT           IFDPRJ         OFF         [  1]    ***   
       FD_STEPSIZE          IDISFD              0            10-4 bohr
       FD_USEGROUP          IFDGRP         FULL        [  0]    ***   
       FILE_RECSIZ          IFLREC              4096           words  
       FINITE_PERT          IFIPER              0             x 10-6  
       FIXGEOM              IFIXGM         OFF         [  0]    ***   
       FOCK                 IFOCK          AO          [  1]    ***   
       FREQ_ALGORI          IVIALG         STANDARD    [  0]    ***   
       FROZEN_CORE          IFROCO         OFF         [  0]    ***   
       GAMMA_ABCD           IGABCD         STORE       [  0]    ***   
       GAMMA_ABCI           IGABCI         STORE       [  0]    ***   
       GENBAS_1             IGNBS1              0               ***   
       GENBAS_2             IGNBS2              0               ***   
       GENBAS_3             IGNBS3              0               ***   
       GENBAS_4             IGNBS4              0               ***   
       GEO_CONV             ICONTL              5              H/bohr 
       GEO_MAXCYC           IOPTCY             50               ***   
       GEO_MAXSTEP          IMXSTP            300            millibohr
       GEO_METHOD           INR            SINGLE_POINT[  5]    ***   
       GIAO                 IGIAO          OFF         [  1]    ***   
       GIMIC                IGIMIC         OFF         [  0]    ***   
       GRID                 IGRID          OFF         [  0]    ***   
       GRID_ALGO            IGALGO         SERIAL      [  0]    ***   
       GUESS                IGUESS         MOREAD      [  0]    ***   
       HBAR                 IHBAR          OFF         [  0]    ***   
       HESS_TYPE            IHESTP         SCF         [  0]    ***   
       HF2_FILE             IHF2Fl         USE         [  1]    ***   
       HFSTABILITY          ISTABL         OFF         [  0]    ***   
       INCORE               INCORE         OFF         [  0]    ***   
       INPUT_MRCC           IMRCC          ON          [  1]    ***   
       INTEGRALS            INTTYP         VMOL        [  1]    ***   
       JODA_PRINT           IJPRNT              0               ***   
       KEYWORD_OUT          IDMPKW         NO          [  0]    ***   
       LINDEP_TOL           ILINDP              8               ***   
       LINEQ_CONV           IZTACN          10D-  7           cycles  
       LINEQ_EXPOR          ILMAXD              5               ***   
       LINEQ_MAXCY          ILMAXC            100               ***   
       LINEQ_TYPE           ILTYPE         DIIS        [  1]    ***   
       LOCK_ORBOCC          ILOCOC         OFF         [  0]    ***   
       MEMORY_SIZE          IMEMSZ         500000000           words  
       MEM_UNIT             IMEMU          INTEGERWORDS[  0]    ***   
       MRCC                 IMRCCC         OFF         [  0]    ***   
       MULTIPLICTY          IMULTP              1               ***   
       NACOUPLING           IVCOUP         OFF         [  0]    ***   
       NEGEVAL              IDIE           ABORT       [  0]    ***   
       NEWNORM              INEWNO         OFF         [  0]    ***   
       NON-HF               INONHF         OFF         [  0]    ***   
       NTOP_TAMP            ITOPT2             15               ***   
       NUC_MODEL            INUCMO         POINT       [  0]    ***   
       OCCUPATION           IOCCU   ESTIMATED BY SCF 
       OPEN-SHELL           IOPEN          SPIN-ORBITAL[  0]    ***   
       OPTVIB               IOPTVB         OFF         [  0]    ***   
       ORBITALS             IORBTP         STANDARD    [  0]    ***   
       PARALLEL             IPARAL         ON          [  1]    ***   
       PARA_INT             IPINTS         ON          [  1]    ***   
       PARA_PRINT           IPPRIN              0               ***   
       PERT_ORB             IPTORB         STANDARD    [  0]    ***   
       POINTS               IGRDFD              0               ***   
       PRINT                IPRNT               0               ***   
       PROPS                IPROPS         OFF         [  0]    ***   
       PROP_INTEGR          IINTYP         INTERNAL    [  0]    ***   
       PSI                  IPSI           OFF         [  0]    ***   
       QC_ALG               IQCALG         FLM         [  0]    ***   
       QC_LINALG            IQCLIN         TRIDIAG     [  2]    ***   
       QC_MAXCYC            IQCMAX          10D-100           cycles  
       QC_MAXSCFCY          IQCMSC          10D- 15           cycles  
       QC_RTRUST            IQCRTR          10D-  0           x 10-3  
       QC_SKIPSCF           IQCSKI         OFF         [  0]    ***   
       QC_START             IQCSTA          10D-  1             ***   
       QRHFGUESS            IQGUES         OFF         [  0]    ***   
       QUARTIC              IQUART         OFF         [  0]    ***   
       RAMAN_INT            IRAMIN         OFF         [  0]    ***   
       RAMAN_ORB            IRAMRE         UNRELAXED   [  0]    ***   
       RDO                  IRDOFM         ON          [  1]    ***   
       REDUCE_REPR          REDREP         Ir          [  0]    ***   
       REFERENCE            IREFNC         RHF         [  0]    ***   
       RELATIVIST           IRELAT         OFF         [  0]    ***   
       RELAX_DENS           IRDENS         ON          [  1]    ***   
       RESET_FLAGS          IRESET         OFF         [  0]    ***   
       RESTART_CC           ICCRES         OFF         [  0]    ***   
       ROT_EVEC             ROTVEC              0               ***   
       SAVE_INTS            ISVINT         OFF         [  0]    ***   
       SCALE_ON             ISTCRT              0               ***   
       SCF_CONV             ISCFCV          10D- 10             ***   
       SCF_DAMPING          IDAMP               0             x 10-3  
       SCF_EXPORDE          IRPPOR              6               ***   
       SCF_EXPSTAR          IRPPLS              8               ***   
       SCF_EXTRAPO          IRPP           ON          [  1]    ***   
       SCF_MAXCYC           ISCFCY            150              cycles 
       SCF_NOSTOP           ISCFST         OFF         [  0]    ***   
       SCF_PRINT            ISCFPR              0               ***   
       SCF_PROG             ISCFPR         SCF         [  0]    ***   
       SD_FIELD             IFINSD              0             x 10-6  
       SOPERT               IPERSO         OFF         [  0]    ***   
       SPHERICAL            IDFGHI         ON          [  1]    ***   
       SPINORBIT            ISOCAL         OFF         [  0]    ***   
       SPINROTATIO          ISRCON         OFF         [  0]    ***   
       SPIN_FLIP            ISPFLP         OFF         [  0]    ***   
       SPIN_ORBIT           ISPORB         OFF         [  0]    ***   
       SPIN_SCAL            ISCSMP         OFF         [  0]    ***   
       STEEPSCALE           ISTPSC              1000          x 10-3  
       SUBGROUP             ISUBGP         DEFAULT     [  0]    ***   
       SUBGRPAXIS           ISBXYZ         X           [  0]    ***   
       SYMMETRY             ISYM           ON          [  0]    ***   
       SYM_CHECK            ISYMCK         OVERRIDE    [  1]    ***   
       T3_EXTRAPOL          IT3EXT         OFF         [  0]    ***   
       T4_EXTRAPOL          IT4EXP         OFF         [  0]    ***   
       TAMP_SUM             IEVERY              5               ***   
       TESTSUITE            ITESTS         OFF         [  0]    ***   
       THERMOCH             ITHERM         OFF         [  0]    ***   
       TOL_CHOLESK          ITOLCH          10D-  4             ***   
       TRANGRAD             IRESRM         OFF         [  0]    ***   
       TRANS_INV            ITRAIN         IGNORE      [  1]    ***   
       TREAT_PERT           ITREAT         SIMULTANEOUS[  0]    ***   
       TRIP_ALGORI          ITRALG         NORMAL      [  0]    ***   
       UIJ_THRESHO          IUIJTH              1               ***   
       UNITS                IUNITS         ANGSTROM    [  0]    ***   
       UNOS                 IUNOS          OFF         [  0]    ***   
       UPDATE_HESS          IHUPDT         ON          [  1]    ***   
       VIBPHASE             ISETPH         STANDARD    [  0]    ***   
       VIBRATION            IVIB           ANALYTIC    [  1]    ***   
       VIB_ALGORIT          IGEALG         STANDARD    [  0]    ***   
       VNATORB              IVNORB         OFF         [  0]    ***   
       VTRAN                IVTRAN         FULL/PARTIAL[  0]    ***   
       XFIELD               IXEFLD              0             x 10-6  
       XFORM_TOL            IXFTOL          10D- 11             ***   
       YFIELD               IYEFLD              0             x 10-6  
       ZFIELD               IZEFLD            ***             x 10-6  
       ZSCALE_EXP           IZEXPS         OFF         [  0]    ***   
    -------------------------------------------------------------------
   2 entries found in Z-matrix 
   Job Title : Carbon Monoxide DBOC calculation                                                
   There are  1 unique internal coordinates.
   Of these,  0 will be optimized.
   User supplied Z-matrix: 
--------------------------------------------------------------------------------
       SYMBOL    BOND      LENGTH    ANGLE     ANGLE     DIHED     ANGLE
                  TO      (ANGST)    WRT      (DEG)      WRT      (DEG)
--------------------------------------------------------------------------------
        C    
        O          1         r    
                  *Initial values for internal coordinates* 
                      Name             Value
                        r               1.8000000000
--------------------------------------------------------------------------------
  read isotopes from ZMAT file 
   Rotational constants (in cm-1): 
          0.7226485786             0.7226485786
   Rotational constants (in MHz): 
      21664.4623987628         21664.4623987628
********************************************************************************
   The full molecular point group is CXv .
   The largest Abelian subgroup of the full molecular point group is C2v .
   The computational point group is C2v .
********************************************************************************
--------------------------------------------------------------------------------
   Analysis of internal coordinates specified by Z-matrix 
--------------------------------------------------------------------------------
   *The nuclear repulsion energy is   14.111389333333332 a.u.
   *There is   1 degree of freedom within the tot. symm. molecular subspace.
   *Z-matrix requests optimization of   0 coordinates.
   *The optimization is constrained.
   *The following   1 parameters can have non-zero 
    derivatives within the totally symmetric subspace:
             r    [ 1]
   *The following   0 parameters are to be optimized:

   *The following coordinates must be varied in an  unconstrained optimization.
             r    [ 1]
--------------------------------------------------------------------------------


 ----------------------------------------------------------------
         Coordinates used in calculation (QCOMP) 
 ----------------------------------------------------------------
 Z-matrix   Atomic            Coordinates (in bohr)
  Symbol    Number           X              Y              Z
 ----------------------------------------------------------------
     C         6        -0.00000000     0.00000000     2.04086656
     O         8         0.00000000     0.00000000    -1.36064118
 ----------------------------------------------------------------
 
   Interatomic distance matrix (Angstroms) 
 
                 C             O    
                [ 1]        [ 2]
  C    [ 1]     0.00000
  O    [ 2]     1.80000     0.00000
 rotcon2
   Rotational constants (in cm-1): 
          0.7226485786             0.0000000000
   Rotational constants (in MHz): 
      21664.4623987628             0.0000000000
  ECPDATA file not present.   Using default ECPDATA. 
  @GTFLGS-I, Hessian will be transformed to curvilinear coordinates.
  There are  218 basis functions.
 @CHECKOUT-I, Total execution time (CPU/WALL):        0.16/       0.21 seconds.
--executable xjoda finished with status     0 in        0.26 seconds (walltime).
 --invoking executable--
/nfs/workspaces/public/cfour_mpi/bin/xvmol
 SERIAL VERSION OF MOLECULE STARTED
********************************************************************************
                    INPUT FROM MOL FILE
********************************************************************************
INTGRL        1    0    1    0    0    0    0    0    0                         
         *** CFOUR Program System (Release V0.1) ***                            
Carbon Monoxide DBOC calculation                                                
    2    2 X  Y       0.10E-08              0    0                              
   9999.00      3.00                                                            
          6.00000000    1    5    1    1    1    1    1                         
C #1  -0.000000000000000   0.000000000000000   2.040866557974462                
   16    9                                                                      
   33980.0000000000       9.100000000000000E-005 -1.900000000000000E-005        
  0.000000000000000E+000  0.000000000000000E+000  0.000000000000000E+000        
  0.000000000000000E+000  0.000000000000000E+000  0.000000000000000E+000        
  0.000000000000000E+000                                                        
   5089.00000000000       7.040000000000000E-004 -1.510000000000000E-004        
  0.000000000000000E+000  0.000000000000000E+000  0.000000000000000E+000        
  0.000000000000000E+000  0.000000000000000E+000  0.000000000000000E+000        
  0.000000000000000E+000                                                        
   1157.00000000000       3.693000000000000E-003 -7.850000000000000E-004        
  0.000000000000000E+000  0.000000000000000E+000  0.000000000000000E+000        
  0.000000000000000E+000  0.000000000000000E+000  0.000000000000000E+000        
  0.000000000000000E+000                                                        
   326.600000000000       1.536000000000000E-002 -3.324000000000000E-003        
  0.000000000000000E+000  0.000000000000000E+000  0.000000000000000E+000        
  0.000000000000000E+000  0.000000000000000E+000  0.000000000000000E+000        
  0.000000000000000E+000                                                        
   106.100000000000       5.292900000000000E-002 -1.151200000000000E-002        
  0.000000000000000E+000  0.000000000000000E+000  0.000000000000000E+000        
  0.000000000000000E+000  0.000000000000000E+000  0.000000000000000E+000        
  0.000000000000000E+000                                                        
   38.1100000000000       0.147043000000000      -3.416000000000000E-002        
  0.000000000000000E+000  0.000000000000000E+000  0.000000000000000E+000        
  0.000000000000000E+000  0.000000000000000E+000  0.000000000000000E+000        
  0.000000000000000E+000                                                        
   14.7500000000000       0.305631000000000      -7.717300000000001E-002        
  0.000000000000000E+000  0.000000000000000E+000  0.000000000000000E+000        
  0.000000000000000E+000  0.000000000000000E+000  0.000000000000000E+000        
  0.000000000000000E+000                                                        
   6.03500000000000       0.399345000000000      -0.141493000000000             
  0.000000000000000E+000  0.000000000000000E+000  0.000000000000000E+000        
  0.000000000000000E+000  0.000000000000000E+000  0.000000000000000E+000        
  0.000000000000000E+000                                                        
   2.53000000000000       0.217051000000000      -0.118019000000000             
  0.000000000000000E+000  0.000000000000000E+000  0.000000000000000E+000        
  0.000000000000000E+000  0.000000000000000E+000  0.000000000000000E+000        
  0.000000000000000E+000                                                        
  0.735500000000000       1.589400000000000E-002  0.273806000000000             
   1.00000000000000       0.000000000000000E+000  0.000000000000000E+000        
  0.000000000000000E+000  0.000000000000000E+000  0.000000000000000E+000        
  0.000000000000000E+000                                                        
  0.290500000000000      -3.084000000000000E-003  0.586510000000000             
  0.000000000000000E+000   1.00000000000000       0.000000000000000E+000        
  0.000000000000000E+000  0.000000000000000E+000  0.000000000000000E+000        
  0.000000000000000E+000                                                        
  0.111100000000000       9.779999999999999E-004  0.285430000000000             
  0.000000000000000E+000  0.000000000000000E+000   1.00000000000000             
  0.000000000000000E+000  0.000000000000000E+000  0.000000000000000E+000        
  0.000000000000000E+000                                                        
   7.21600000000000       0.000000000000000E+000  0.000000000000000E+000        
  0.000000000000000E+000  0.000000000000000E+000  0.000000000000000E+000        
   1.00000000000000       0.000000000000000E+000  0.000000000000000E+000        
  0.000000000000000E+000                                                        
   19.5700000000000       0.000000000000000E+000  0.000000000000000E+000        
  0.000000000000000E+000  0.000000000000000E+000  0.000000000000000E+000        
  0.000000000000000E+000   1.00000000000000       0.000000000000000E+000        
  0.000000000000000E+000                                                        
   53.0730000000000       0.000000000000000E+000  0.000000000000000E+000        
  0.000000000000000E+000  0.000000000000000E+000  0.000000000000000E+000        
  0.000000000000000E+000  0.000000000000000E+000   1.00000000000000             
  0.000000000000000E+000                                                        
  4.145000000000000E-002  0.000000000000000E+000  0.000000000000000E+000        
  0.000000000000000E+000  0.000000000000000E+000  0.000000000000000E+000        
  0.000000000000000E+000  0.000000000000000E+000  0.000000000000000E+000        
   1.00000000000000                                                             
   10    8                                                                      
   34.5100000000000       5.378000000000000E-003  0.000000000000000E+000        
  0.000000000000000E+000  0.000000000000000E+000  0.000000000000000E+000        
  0.000000000000000E+000  0.000000000000000E+000  0.000000000000000E+000        
   7.91500000000000       3.613200000000000E-002  0.000000000000000E+000        
  0.000000000000000E+000  0.000000000000000E+000  0.000000000000000E+000        
  0.000000000000000E+000  0.000000000000000E+000  0.000000000000000E+000        
   2.36800000000000       0.142493000000000       0.000000000000000E+000        
  0.000000000000000E+000  0.000000000000000E+000  0.000000000000000E+000        
  0.000000000000000E+000  0.000000000000000E+000  0.000000000000000E+000        
  0.813200000000000       0.342150000000000        1.00000000000000             
  0.000000000000000E+000  0.000000000000000E+000  0.000000000000000E+000        
  0.000000000000000E+000  0.000000000000000E+000  0.000000000000000E+000        
  0.289000000000000       0.463864000000000       0.000000000000000E+000        
   1.00000000000000       0.000000000000000E+000  0.000000000000000E+000        
  0.000000000000000E+000  0.000000000000000E+000  0.000000000000000E+000        
  0.100700000000000       0.250028000000000       0.000000000000000E+000        
  0.000000000000000E+000   1.00000000000000       0.000000000000000E+000        
  0.000000000000000E+000  0.000000000000000E+000  0.000000000000000E+000        
   8.18200000000000       0.000000000000000E+000  0.000000000000000E+000        
  0.000000000000000E+000  0.000000000000000E+000   1.00000000000000             
  0.000000000000000E+000  0.000000000000000E+000  0.000000000000000E+000        
   24.1860000000000       0.000000000000000E+000  0.000000000000000E+000        
  0.000000000000000E+000  0.000000000000000E+000  0.000000000000000E+000        
   1.00000000000000       0.000000000000000E+000  0.000000000000000E+000        
   71.4940000000000       0.000000000000000E+000  0.000000000000000E+000        
  0.000000000000000E+000  0.000000000000000E+000  0.000000000000000E+000        
  0.000000000000000E+000   1.00000000000000       0.000000000000000E+000        
  3.218000000000000E-002  0.000000000000000E+000  0.000000000000000E+000        
  0.000000000000000E+000  0.000000000000000E+000  0.000000000000000E+000        
  0.000000000000000E+000  0.000000000000000E+000   1.00000000000000             
    6    6                                                                      
   1.84800000000000        1.00000000000000       0.000000000000000E+000        
  0.000000000000000E+000  0.000000000000000E+000  0.000000000000000E+000        
  0.000000000000000E+000                                                        
  0.649000000000000       0.000000000000000E+000   1.00000000000000             
  0.000000000000000E+000  0.000000000000000E+000  0.000000000000000E+000        
  0.000000000000000E+000                                                        
  0.228000000000000       0.000000000000000E+000  0.000000000000000E+000        
   1.00000000000000       0.000000000000000E+000  0.000000000000000E+000        
  0.000000000000000E+000                                                        
   8.65600000000000       0.000000000000000E+000  0.000000000000000E+000        
  0.000000000000000E+000   1.00000000000000       0.000000000000000E+000        
  0.000000000000000E+000                                                        
   33.2130000000000       0.000000000000000E+000  0.000000000000000E+000        
  0.000000000000000E+000  0.000000000000000E+000   1.00000000000000             
  0.000000000000000E+000                                                        
  7.660000000000000E-002  0.000000000000000E+000  0.000000000000000E+000        
  0.000000000000000E+000  0.000000000000000E+000  0.000000000000000E+000        
   1.00000000000000                                                             
    4    4                                                                      
   1.41900000000000        1.00000000000000       0.000000000000000E+000        
  0.000000000000000E+000  0.000000000000000E+000                                
  0.485000000000000       0.000000000000000E+000   1.00000000000000             
  0.000000000000000E+000  0.000000000000000E+000                                
   24.6940000000000       0.000000000000000E+000  0.000000000000000E+000        
   1.00000000000000       0.000000000000000E+000                                
  0.187000000000000       0.000000000000000E+000  0.000000000000000E+000        
  0.000000000000000E+000   1.00000000000000                                     
    2    2                                                                      
   1.01100000000000        1.00000000000000       0.000000000000000E+000        
  0.424000000000000       0.000000000000000E+000   1.00000000000000             
          8.00000000    1    5    1    1    1    1    1                         
O #2   0.000000000000000   0.000000000000000  -1.360641179227319                
   16    9                                                                      
   61420.0000000000       9.000000000000001E-005 -2.000000000000000E-005        
  0.000000000000000E+000  0.000000000000000E+000  0.000000000000000E+000        
  0.000000000000000E+000  0.000000000000000E+000  0.000000000000000E+000        
  0.000000000000000E+000                                                        
   9199.00000000000       6.980000000000001E-004 -1.590000000000000E-004        
  0.000000000000000E+000  0.000000000000000E+000  0.000000000000000E+000        
  0.000000000000000E+000  0.000000000000000E+000  0.000000000000000E+000        
  0.000000000000000E+000                                                        
   2091.00000000000       3.664000000000000E-003 -8.290000000000000E-004        
  0.000000000000000E+000  0.000000000000000E+000  0.000000000000000E+000        
  0.000000000000000E+000  0.000000000000000E+000  0.000000000000000E+000        
  0.000000000000000E+000                                                        
   590.900000000000       1.521800000000000E-002 -3.508000000000000E-003        
  0.000000000000000E+000  0.000000000000000E+000  0.000000000000000E+000        
  0.000000000000000E+000  0.000000000000000E+000  0.000000000000000E+000        
  0.000000000000000E+000                                                        
   192.300000000000       5.242300000000000E-002 -1.215600000000000E-002        
  0.000000000000000E+000  0.000000000000000E+000  0.000000000000000E+000        
  0.000000000000000E+000  0.000000000000000E+000  0.000000000000000E+000        
  0.000000000000000E+000                                                        
   69.3200000000000       0.145921000000000      -3.626100000000000E-002        
  0.000000000000000E+000  0.000000000000000E+000  0.000000000000000E+000        
  0.000000000000000E+000  0.000000000000000E+000  0.000000000000000E+000        
  0.000000000000000E+000                                                        
   26.9700000000000       0.305258000000000      -8.299200000000000E-002        
  0.000000000000000E+000  0.000000000000000E+000  0.000000000000000E+000        
  0.000000000000000E+000  0.000000000000000E+000  0.000000000000000E+000        
  0.000000000000000E+000                                                        
   11.1000000000000       0.398508000000000      -0.152090000000000             
  0.000000000000000E+000  0.000000000000000E+000  0.000000000000000E+000        
  0.000000000000000E+000  0.000000000000000E+000  0.000000000000000E+000        
  0.000000000000000E+000                                                        
   4.68200000000000       0.216980000000000      -0.115331000000000             
  0.000000000000000E+000  0.000000000000000E+000  0.000000000000000E+000        
  0.000000000000000E+000  0.000000000000000E+000  0.000000000000000E+000        
  0.000000000000000E+000                                                        
   1.42800000000000       1.759400000000000E-002  0.288979000000000             
   1.00000000000000       0.000000000000000E+000  0.000000000000000E+000        
  0.000000000000000E+000  0.000000000000000E+000  0.000000000000000E+000        
  0.000000000000000E+000                                                        
  0.554700000000000      -2.502000000000000E-003  0.586128000000000             
  0.000000000000000E+000   1.00000000000000       0.000000000000000E+000        
  0.000000000000000E+000  0.000000000000000E+000  0.000000000000000E+000        
  0.000000000000000E+000                                                        
  0.206700000000000       9.540000000000000E-004  0.277624000000000             
  0.000000000000000E+000  0.000000000000000E+000   1.00000000000000             
  0.000000000000000E+000  0.000000000000000E+000  0.000000000000000E+000        
  0.000000000000000E+000                                                        
   12.9740000000000       0.000000000000000E+000  0.000000000000000E+000        
  0.000000000000000E+000  0.000000000000000E+000  0.000000000000000E+000        
   1.00000000000000       0.000000000000000E+000  0.000000000000000E+000        
  0.000000000000000E+000                                                        
   34.9000000000000       0.000000000000000E+000  0.000000000000000E+000        
  0.000000000000000E+000  0.000000000000000E+000  0.000000000000000E+000        
  0.000000000000000E+000   1.00000000000000       0.000000000000000E+000        
  0.000000000000000E+000                                                        
   93.8810000000000       0.000000000000000E+000  0.000000000000000E+000        
  0.000000000000000E+000  0.000000000000000E+000  0.000000000000000E+000        
  0.000000000000000E+000  0.000000000000000E+000   1.00000000000000             
  0.000000000000000E+000                                                        
  6.959000000000000E-002  0.000000000000000E+000  0.000000000000000E+000        
  0.000000000000000E+000  0.000000000000000E+000  0.000000000000000E+000        
  0.000000000000000E+000  0.000000000000000E+000  0.000000000000000E+000        
   1.00000000000000                                                             
   10    8                                                                      
   63.4200000000000       6.044000000000000E-003  0.000000000000000E+000        
  0.000000000000000E+000  0.000000000000000E+000  0.000000000000000E+000        
  0.000000000000000E+000  0.000000000000000E+000  0.000000000000000E+000        
   14.6600000000000       4.179900000000000E-002  0.000000000000000E+000        
  0.000000000000000E+000  0.000000000000000E+000  0.000000000000000E+000        
  0.000000000000000E+000  0.000000000000000E+000  0.000000000000000E+000        
   4.45900000000000       0.161143000000000       0.000000000000000E+000        
  0.000000000000000E+000  0.000000000000000E+000  0.000000000000000E+000        
  0.000000000000000E+000  0.000000000000000E+000  0.000000000000000E+000        
   1.53100000000000       0.356731000000000        1.00000000000000             
  0.000000000000000E+000  0.000000000000000E+000  0.000000000000000E+000        
  0.000000000000000E+000  0.000000000000000E+000  0.000000000000000E+000        
  0.530200000000000       0.448309000000000       0.000000000000000E+000        
   1.00000000000000       0.000000000000000E+000  0.000000000000000E+000        
  0.000000000000000E+000  0.000000000000000E+000  0.000000000000000E+000        
  0.175000000000000       0.244940000000000       0.000000000000000E+000        
  0.000000000000000E+000   1.00000000000000       0.000000000000000E+000        
  0.000000000000000E+000  0.000000000000000E+000  0.000000000000000E+000        
   14.4750000000000       0.000000000000000E+000  0.000000000000000E+000        
  0.000000000000000E+000  0.000000000000000E+000   1.00000000000000             
  0.000000000000000E+000  0.000000000000000E+000  0.000000000000000E+000        
   42.7300000000000       0.000000000000000E+000  0.000000000000000E+000        
  0.000000000000000E+000  0.000000000000000E+000  0.000000000000000E+000        
   1.00000000000000       0.000000000000000E+000  0.000000000000000E+000        
   126.140000000000       0.000000000000000E+000  0.000000000000000E+000        
  0.000000000000000E+000  0.000000000000000E+000  0.000000000000000E+000        
  0.000000000000000E+000   1.00000000000000       0.000000000000000E+000        
  5.348000000000000E-002  0.000000000000000E+000  0.000000000000000E+000        
  0.000000000000000E+000  0.000000000000000E+000  0.000000000000000E+000        
  0.000000000000000E+000  0.000000000000000E+000   1.00000000000000             
    6    6                                                                      
   3.77500000000000        1.00000000000000       0.000000000000000E+000        
  0.000000000000000E+000  0.000000000000000E+000  0.000000000000000E+000        
  0.000000000000000E+000                                                        
   1.30000000000000       0.000000000000000E+000   1.00000000000000             
  0.000000000000000E+000  0.000000000000000E+000  0.000000000000000E+000        
  0.000000000000000E+000                                                        
  0.444000000000000       0.000000000000000E+000  0.000000000000000E+000        
   1.00000000000000       0.000000000000000E+000  0.000000000000000E+000        
  0.000000000000000E+000                                                        
   14.9270000000000       0.000000000000000E+000  0.000000000000000E+000        
  0.000000000000000E+000   1.00000000000000       0.000000000000000E+000        
  0.000000000000000E+000                                                        
   57.5440000000000       0.000000000000000E+000  0.000000000000000E+000        
  0.000000000000000E+000  0.000000000000000E+000   1.00000000000000             
  0.000000000000000E+000                                                        
  0.154000000000000       0.000000000000000E+000  0.000000000000000E+000        
  0.000000000000000E+000  0.000000000000000E+000  0.000000000000000E+000        
   1.00000000000000                                                             
    4    4                                                                      
   2.66600000000000        1.00000000000000       0.000000000000000E+000        
  0.000000000000000E+000  0.000000000000000E+000                                
  0.859000000000000       0.000000000000000E+000   1.00000000000000             
  0.000000000000000E+000  0.000000000000000E+000                                
   26.4830000000000       0.000000000000000E+000  0.000000000000000E+000        
   1.00000000000000       0.000000000000000E+000                                
  0.324000000000000       0.000000000000000E+000  0.000000000000000E+000        
  0.000000000000000E+000   1.00000000000000                                     
    2    2                                                                      
   1.84600000000000        1.00000000000000       0.000000000000000E+000        
  0.714000000000000       0.000000000000000E+000   1.00000000000000             
FINISH                                                                          
 
********************************************************************************
 ONE- AND TWO-ELECTRON INTEGRALS OVER SYMMETRY-ADAPTED AOS ARE CALCULATED.

  SPHERICAL HARMONICS ARE USED.
  
  INTEGRALS LESS THAN  0.10E-13 ARE NEGLECTED.

  NUCLEAR REPULSION ENERGY :   14.1113893333 A.U.
  @MOLECU-I, ONE ELECTRON INTEGRALS (CPU/WALL):        0.06/       0.06 SECONDS.
  @TWOEL-I,    4349395 INTEGRALS OF SYMMETRY TYPE  I I I I
  @TWOEL-I,   18763966 INTEGRALS OF SYMMETRY TYPE  I J I J
  @TWOEL-I,    9883510 INTEGRALS OF SYMMETRY TYPE  I I J J
  @TWOEL-I,   13837102 INTEGRALS OF SYMMETRY TYPE  I J K L
  @TWOEL-I, TOTAL NUMBER OF 2-E INTEGRALS   46833973.
  @MOLECU-I, TWO ELECTRON INTEGRALS (CPU/WALL):      237.55/      31.57 SECONDS.
 @CHECKOUT-I, Total execution time (CPU/WALL):      237.63/      31.66 seconds.

Running with 14 threads/proc

--executable xvmol finished with status     0 in       31.71 seconds (walltime).
 --invoking executable--
/nfs/workspaces/public/cfour_mpi/bin/xvmol2ja
 @GETMEM-I,  Allocated    3814 MB of main memory.
 @CHECKOUT-I, Total execution time (CPU/WALL):        0.14/       0.04 seconds.
--executable xvmol2ja finished with status     0 in        0.07 seconds (walltime).
 --invoking executable--
/nfs/workspaces/public/cfour_mpi/bin/xvprop
 @GETMEM-I,  Allocated    3814 MB of main memory.
   Property integrals will be calculated.
    --------------------------------------------------------------
                                   Property evaluated at 
    Property type                X             Y             Z
    --------------------------------------------------------------
    Dipole moment               ----          ----          ----  
    Quadrupole moment           ----          ----          ----  
    Octopole moment             ----          ----          ----  
    Relativisitic corr.         ----          ----          ----  
    Second moment            0.0000000     0.0000000     0.0000000
    Electron density         0.0000000     0.0000000     2.0408666
    Electron density         0.0000000     0.0000000    -1.3606412
    Field gradient           0.0000000     0.0000000     2.0408666
    Field gradient           0.0000000     0.0000000    -1.3606412
    Potential                0.0000000     0.0000000     2.0408666
    Potential                0.0000000     0.0000000    -1.3606412
    --------------------------------------------------------------
 @CHECKOUT-I, Total execution time (CPU/WALL):        1.30/       1.32 seconds.
--executable xvprop finished with status     0 in        1.34 seconds (walltime).
 --invoking executable--
/nfs/workspaces/public/cfour_mpi/bin/xvscf
  There are  218 functions in the AO basis.

  There are 4 irreducible representations.

       Irrep        # of functions
         1                 86
         2                 52
         3                 52
         4                 28


  Parameters for SCF calculation: 
        SCF reference function:  RHF  
  Maximum number of iterations:  150
     Full symmetry point group: CXv 
     Computational point group: C2v 
        Initial density matrix: MOREAD                 
     SCF convergence tolerance: 10**(-10)
  DIIS convergence acceleration:  ON
          Latest start for DIIS:   8
                     DIIS order:   6

  Memory information:    2523578 words required.
  Fock matrices are constructed from AO integral file.
 @GETMEM-I,  Allocated      19 MB of main memory.
  Initialization and symmetry analysis required      0.002 seconds.

  Adding electric field perturbation to one-electron Hamiltonian.
  Field direction     : Z
  Field strength      : -0.0002000 a.u.

  @INITGES-I, Occupancies from core Hamiltonian:

          Alpha population by irrep:   5    1    1    0
           Beta population by irrep:   5    1    1    0


 total no. of electrons in initial guess :  0.000000000000000E+000
  --------------------------------------------------------------------
  Iteration         Total Energy            Largest Density Difference
  --------------------------------------------------------------------
       0            14.111661347315447              0.0000000000D+00
   current occupation vector 
     5  1  1  0
     5  1  1  0
       1           -93.759522059446752              0.1756632502D+02
   current occupation vector 
     5  1  1  0
     5  1  1  0
       2           -97.513167950920788              0.1756632093D+02
   current occupation vector 
     5  1  1  0
     5  1  1  0
       3           -99.665804732843711              0.7018723365D+01
   current occupation vector 
     5  1  1  0
     5  1  1  0
       4           -94.003407401809298              0.7017449917D+01
   current occupation vector 
     5  1  1  0
     5  1  1  0
       5           -99.693749838671906              0.7081414836D+01
   current occupation vector 
     5  1  1  0
     5  1  1  0
       6           -93.919402000391841              0.7081395104D+01
   current occupation vector 
     5  1  1  0
     5  1  1  0
       7           -99.692176546238727              0.7083902747D+01
   current occupation vector 
     5  1  1  0
     5  1  1  0
       8           -93.917636197272302              0.7083902712D+01
   current occupation vector 
     5  1  1  0
     5  1  1  0
       9          -106.490194317736510              0.6162407214D+01
   current occupation vector 
     5  1  1  0
     5  1  1  0
      10          -110.484852644785803              0.1427644859D+01
   current occupation vector 
     5  1  1  0
     5  1  1  0
      11          -112.043360374653147              0.9092923340D+00
   current occupation vector 
     5  1  1  0
     5  1  1  0
      12          -112.209562769863084              0.8242002349D+00
   current occupation vector 
     5  1  1  0
     5  1  1  0
      13          -112.379376034439318              0.1756585495D+00
   current occupation vector 
     5  1  1  0
     5  1  1  0
      14          -112.422000026689531              0.1836548704D+00
   current occupation vector 
     5  1  1  0
     5  1  1  0
      15          -112.424691204127313              0.6445672552D-01
   current occupation vector 
     5  1  1  0
     5  1  1  0
      16          -112.428056088801100              0.1097081698D+00
   current occupation vector 
     5  1  1  0
     5  1  1  0
      17          -112.430939862760553              0.1400030168D+00
   current occupation vector 
     5  1  1  0
     5  1  1  0
      18          -112.431580051853189              0.8360126315D-01
   current occupation vector 
     5  1  1  0
     5  1  1  0
      19          -112.431581832191711              0.8183611665D-02
   current occupation vector 
     5  1  1  0
     5  1  1  0
      20          -112.431583702051725              0.6277250268D-02
   current occupation vector 
     5  1  1  0
     5  1  1  0
      21          -112.431583787447224              0.1430327694D-02
   current occupation vector 
     5  1  1  0
     5  1  1  0
      22          -112.431583795705791              0.3571783867D-03
   current occupation vector 
     5  1  1  0
     5  1  1  0
      23          -112.431583795731086              0.1080542264D-04
   current occupation vector 
     5  1  1  0
     5  1  1  0
      24          -112.431583795730887              0.4702680055D-05
   current occupation vector 
     5  1  1  0
     5  1  1  0
      25          -112.431583795732067              0.1429531068D-05
   current occupation vector 
     5  1  1  0
     5  1  1  0
      26          -112.431583795730916              0.8117198373D-06
   current occupation vector 
     5  1  1  0
     5  1  1  0
      27          -112.431583795731655              0.1720666487D-06
   current occupation vector 
     5  1  1  0
     5  1  1  0
      28          -112.431583795731683              0.4814301291D-07
   current occupation vector 
     5  1  1  0
     5  1  1  0
      29          -112.431583795731498              0.3776386981D-08
   current occupation vector 
     5  1  1  0
     5  1  1  0
      30          -112.431583795731825              0.1727149979D-08
   current occupation vector 
     5  1  1  0
     5  1  1  0
      31          -112.431583795731910              0.1509814496D-09
   current occupation vector 
     5  1  1  0
     5  1  1  0
      32          -112.431583795730674              0.1580946707D-08
   current occupation vector 
     5  1  1  0
     5  1  1  0
      33          -112.431583795731285              0.1003937156D-08
   current occupation vector 
     5  1  1  0
     5  1  1  0
      34          -112.431583795730774              0.4509561613D-09
   current occupation vector 
     5  1  1  0
     5  1  1  0
      35          -112.431583795730845              0.2723150594D-09
   current occupation vector 
     5  1  1  0
     5  1  1  0
      36          -112.431583795731200              0.2652731368D-09
   current occupation vector 
     5  1  1  0
     5  1  1  0
      37          -112.431583795731669              0.5096980615D-09
   current occupation vector 
     5  1  1  0
     5  1  1  0
      38          -112.431583795730887              0.4573093015D-09
   current occupation vector 
     5  1  1  0
     5  1  1  0

  SCF has converged.

 Density matrix saved to file den.dat
 total electron number:   14.0000000000002     
     E(SCF)=      -112.431583795731569              0.3203504129D-10

  Eigenvector printing suppressed.

 @PUTMOS-I, Writing converged MOs to NEWMOS. 
 @PUTMOS-I, Symmetry   1 Full Blocks 21 Partial Blocksize   2
 @PUTMOS-I, Symmetry   2 Full Blocks 13 Partial Blocksize   0
 @PUTMOS-I, Symmetry   3 Full Blocks 13 Partial Blocksize   0
 @PUTMOS-I, Symmetry   4 Full Blocks  7 Partial Blocksize   0
 @PUTFOCK-I, Writing converged Fock matrix to NEWFOCK. 
 @PUTFOCK-I, Symmetry   1 Full Blocks 21 Partial Blocksize   2
 @PUTFOCK-I, Symmetry   2 Full Blocks 13 Partial Blocksize   0
 @PUTFOCK-I, Symmetry   3 Full Blocks 13 Partial Blocksize   0
 @PUTFOCK-I, Symmetry   4 Full Blocks  7 Partial Blocksize   0


 
  ORBITAL EIGENVALUES (ALPHA)  (1H = 27.2113834 eV)

       MO #        E(hartree)               E(eV)           FULLSYM    COMPSYM
       ----   --------------------   --------------------   -------   ---------
    1     1         -20.6208594329        -561.1221120661     SG+        A1 (1)
    2     2         -11.5320379462        -313.8027059387     SG+        A1 (1)
    3     3          -1.2189594396         -33.1695726587     SG+        A1 (1)
    4     4          -0.8139596226         -22.1489673638     SG+        A1 (1)
    5     5          -0.4817013987         -13.1077614452     SG+        A1 (1)
    6    87          -0.4768676506         -12.9762284718      PI        B1 (2)
    7   139          -0.4768676506         -12.9762284718      PI        B2 (3)
  +++++++++++++++++++++++++++++++++++++++++++++++++++++++++++++++++++++++++++++
    8    88          -0.0286585074          -0.7798376324      PI        B1 (2)
    9   140          -0.0286585074          -0.7798376324      PI        B2 (3)
   10     6           0.0553313935           1.5056437634     SG+        A1 (1)
   11     7           0.0689394915           1.8759389352     SG+        A1 (1)
   12    89           0.0805585831           2.1921104913      PI        B1 (2)
   13   141           0.0805585831           2.1921104913      PI        B2 (3)
   14     8           0.1423426271           3.8733398002     SG+        A1 (1)
   15     9           0.1618109644           4.4031001893     SG+        A1 (1)
   16    90           0.1848407895           5.0297735909      PI        B1 (2)
   17   142           0.1848407895           5.0297735909      PI        B2 (3)
   18   191           0.2182736074           5.9395268182      DE        A2 (4)
   19    10           0.2182736074           5.9395268182      DE        A1 (1)
   20    91           0.2773336488           7.5466322483      PI        B1 (2)
   21   143           0.2773336488           7.5466322483      PI        B2 (3)
   22    11           0.2838987608           7.7252780282     SG+        A1 (1)
   23    12           0.3065461353           8.3415444172     SG+        A1 (1)
   24    13           0.4073407453          11.0843051956     SG+        A1 (1)
   25    92           0.4124012885          11.2220095764      PI        B1 (2)
   26   144           0.4124012885          11.2220095764      PI        B2 (3)
   27    14           0.5177389632          14.0883934289     SG+        A1 (1)
   28   192           0.5503283363          14.9751953542      DE        A2 (4)
   29    15           0.5503283363          14.9751953542      DE        A1 (1)
   30    93           0.6252410266          17.0136732930      PI        B1 (2)
   31   145           0.6252410266          17.0136732930      PI        B2 (3)
   32    16           0.6954399524          18.9238831754     SG+        A1 (1)
   33    94           0.7220077999          19.6468310615      PH        B1 (2)
   34   146           0.7220077999          19.6468310615      PH        B2 (3)
   35    17           0.7290519567          19.8385123117      DE        A1 (1)
   36   193           0.7290519567          19.8385123117      DE        A2 (4)
   37   147           0.7638857400          20.7863877450      PI        B2 (3)
   38    95           0.7638857400          20.7863877450      PI        B1 (2)
   39    18           0.8003091827          21.7775200096     SG+        A1 (1)
   40    19           0.8413693450          22.8948238280      DE        A1 (1)
   41   194           0.8413693450          22.8948238280      DE        A2 (4)
   42    96           0.8521883195          23.1892230906      PI        B1 (2)
   43   148           0.8521883195          23.1892230906      PI        B2 (3)
   44    20           0.9171151972          24.9559732543     SG+        A1 (1)
   45    97           1.0636294921          28.9428299057      PI        B1 (2)
   46   149           1.0636294921          28.9428299057      PI        B2 (3)
   47    21           1.1604823794          31.5783309557     SG+        A1 (1)
   48    22           1.2999199667          35.3726206030     SG+        A1 (1)
   49    98           1.4173757455          38.5687548323      PH        B1 (2)
   50   150           1.4173757455          38.5687548323      PH        B2 (3)
   51   151           1.4439983008          39.2931913910      PI        B2 (3)
   52    99           1.4439983008          39.2931913910      PI        B1 (2)
   53    23           1.5763378585          42.8943338348     SG+        A1 (1)
   54   195           1.5808409500          43.0168691851      DE        A2 (4)
   55    24           1.5808409500          43.0168691851      DE        A1 (1)
   56   100           1.6430689257          44.7101784895      PI        B1 (2)
   57   152           1.6430689257          44.7101784895      PI        B2 (3)
   58   196           1.6524690021          44.9659675724      DE        A2 (4)
   59    25           1.6524690021          44.9659675724      DE        A1 (1)
   60    26           1.8163966947          49.4266668671     SG+        A1 (1)
   61    27           1.9237856328          52.3488684325     SG+        A1 (1)
   62   101           1.9860166588          54.0422607414      PI        B1 (2)
   63   153           1.9860166588          54.0422607414      PI        B2 (3)
   64   197           2.0507930799          55.8049167708      PI        A2 (4)
   65    28           2.0507930799          55.8049167708      PI        A1 (1)
   66   198           2.1106776721          57.4344593690      DE        A2 (4)
   67    29           2.1106776721          57.4344593690      DE        A1 (1)
   68   154           2.1491126753          58.4803289783      PH        B2 (3)
   69   102           2.1491126753          58.4803289783      PH        B1 (2)
   70   103           2.1913361936          59.6292893230      PH        B1 (2)
   71   155           2.1913361936          59.6292893230      PH        B2 (3)
   72   104           2.1918701884          59.6438200605      PI        B1 (2)
   73   156           2.1918701884          59.6438200605      PI        B2 (3)
   74    30           2.2256141757          60.5620406347     SG+        A1 (1)
   75    31           2.2608703573          61.5214101112      DE        A1 (1)
   76   199           2.2608703573          61.5214101112      DE        A2 (4)
   77    32           2.3454747923          63.8236138289     SG+        A1 (1)
   78   157           2.4440528240          66.5060584430      PI        B2 (3)
   79   105           2.4440528240          66.5060584430      PI        B1 (2)
   80   200           2.5076366339          68.2362618739      DE        A2 (4)
   81    33           2.5076366339          68.2362618739      DE        A1 (1)
   82    34           2.6115369137          71.0635322232     SG+        A1 (1)
   83   158           2.6722628016          72.7159676411      PI        B2 (3)
   84   106           2.6722628016          72.7159676411      PI        B1 (2)
   85    35           2.8019224107          76.2441849757     SG+        A1 (1)
   86   159           3.1857162188          86.6877454341      PI        B2 (3)
   87   107           3.1857162188          86.6877454341      PI        B1 (2)
   88    36           3.7033859073         100.7742538013     SG+        A1 (1)
   89   201           3.7288252055         101.4664922976      PI        A2 (4)
   90    37           3.7288252055         101.4664922976      PI        A1 (1)
   91   160           3.8348689256         104.3520886243      PH        B2 (3)
   92   108           3.8348689256         104.3520886243      PH        B1 (2)
   93    38           4.0536697450         110.3059616081     SG+        A1 (1)
   94   202           4.1000455530         111.5679114993      DE        A2 (4)
   95    39           4.1000455530         111.5679114993      DE        A1 (1)
   96   109           4.1236107567         112.2091532930      PI        B1 (2)
   97   161           4.1236107567         112.2091532930      PI        B2 (3)
   98   110           4.1583061233         113.1532622159      PH        B1 (2)
   99   162           4.1583061233         113.1532622159      PH        B2 (3)
  100    40           4.2693989292         116.1762511511     SG+        A1 (1)
  101   203           4.3139677081         117.3890292804      DE        A2 (4)
  102    41           4.3139677081         117.3890292805      DE        A1 (1)
  103   111           4.4453821090         120.9649969277      PI        B1 (2)
  104   163           4.4453821090         120.9649969277      PI        B2 (3)
  105   204           4.5252932233         123.1394888975      DE        A2 (4)
  106    42           4.5252932233         123.1394888975      DE        A1 (1)
  107    43           4.7984303270         130.5719273452     SG+        A1 (1)
  108   164           4.9432766777         134.5133969288      PI        B2 (3)
  109   112           4.9432766777         134.5133969288      PI        B1 (2)
  110    44           5.1198696922         139.3187371532     SG+        A1 (1)
  111   165           5.3456593218         145.4627853307      PI        B2 (3)
  112   113           5.3456593218         145.4627853307      PI        B1 (2)
  113    45           5.8000108052         157.8263177451      PI        A1 (1)
  114   205           5.8000108052         157.8263177451      PI        A2 (4)
  115   166           5.8724336253         159.7970428691      PH        B2 (3)
  116   114           5.8724336253         159.7970428691      PH        B1 (2)
  117    46           5.8726949049         159.8041526487     SG+        A1 (1)
  118   206           6.0095587827         163.5284081014      DE        A2 (4)
  119    47           6.0095587827         163.5284081014      DE        A1 (1)
  120   115           6.0906955755         165.7362524767      PI        B1 (2)
  121   167           6.0906955755         165.7362524767      PI        B2 (3)
  122    48           6.1079426147         166.2055682726     SG+        A1 (1)
  123   207           6.2267338495         169.4380421077      DE        A2 (4)
  124    49           6.2267338495         169.4380421077      DE        A1 (1)
  125   168           6.3250400293         172.1130892584      PH        B2 (3)
  126   116           6.3250400293         172.1130892584      PH        B1 (2)
  127   208           6.4482088741         175.4646839166      DE        A2 (4)
  128    50           6.4482088741         175.4646839166      DE        A1 (1)
  129   169           6.6280582084         180.3586331051      PI        B2 (3)
  130   117           6.6280582084         180.3586331051      PI        B1 (2)
  131   170           6.8622288276         186.7307396062      PI        B2 (3)
  132   118           6.8622288276         186.7307396062      PI        B1 (2)
  133    51           6.9998145532         190.4746375349     SG+        A1 (1)
  134    52           7.3049535435         198.7778915908     SG+        A1 (1)
  135    53           9.1842089518         249.9150310120     SG+        A1 (1)
  136   119           9.5439898899         259.7051680599      PI        B1 (2)
  137   171           9.5439898899         259.7051680599      PI        B2 (3)
  138    54          10.5850989228         288.0351851150     SG+        A1 (1)
  139   209          10.6965032643         291.0666513648      PI        A2 (4)
  140    55          10.6965032643         291.0666513648      PI        A1 (1)
  141   172          10.7198382860         291.7016295863      PH        B2 (3)
  142   120          10.7198382860         291.7016295863      PH        B1 (2)
  143   210          10.8868246191         296.2455587193      DE        A2 (4)
  144    56          10.8868246191         296.2455587193      DE        A1 (1)
  145   121          11.0075491423         299.5306400057      PI        B1 (2)
  146   173          11.0075491423         299.5306400057      PI        B2 (3)
  147    57          11.0403372598         300.4228500409     SG+        A1 (1)
  148   174          11.9300657831         324.6335940102      PH        B2 (3)
  149   122          11.9300657831         324.6335940102      PH        B1 (2)
  150    58          11.9697121305         325.7124259695      DE        A1 (1)
  151   211          11.9697121305         325.7124259695      DE        A2 (4)
  152   123          12.1129434118         329.6099472796      PI        B1 (2)
  153   175          12.1129434118         329.6099472797      PI        B2 (3)
  154    59          12.3856356142         337.0302793520     SG+        A1 (1)
  155   212          12.7263150376         346.3006377578      DE        A2 (4)
  156    60          12.7263150376         346.3006377578      DE        A1 (1)
  157   176          13.0564598733         355.2843354597      PI        B2 (3)
  158   124          13.0564598733         355.2843354598      PI        B1 (2)
  159    61          13.2883262408         361.5937400840     SG+        A1 (1)
  160    62          17.0879662785         464.9872019303     SG+        A1 (1)
  161   177          18.6393927835         507.2036633742      PI        B2 (3)
  162   125          18.6393927835         507.2036633743      PI        B1 (2)
  163    63          19.2762324594         524.5329519595     SG+        A1 (1)
  164   213          26.2295818526         713.7432082131      DE        A2 (4)
  165    64          26.2295818526         713.7432082131      DE        A1 (1)
  166   178          26.3985192036         718.3402272407      PI        B2 (3)
  167   126          26.3985192036         718.3402272407      PI        B1 (2)
  168    65          26.7730182241         728.5308636701     SG+        A1 (1)
  169   127          33.2993773964         906.1221253152      PI        B1 (2)
  170   179          33.2993773964         906.1221253153      PI        B2 (3)
  171    66          33.9866416758         924.8235371183     SG+        A1 (1)
  172    67          35.4761312324         965.3546085145     SG+        A1 (1)
  173    68          47.0923659588        1281.4484253167      DE        A1 (1)
  174   214          47.0923659588        1281.4484253167      DE        A2 (4)
  175   180          47.2463291631        1285.6379770989      PI        B2 (3)
  176   128          47.2463291631        1285.6379770990      PI        B1 (2)
  177    69          47.3761518555        1289.1706321556     SG+        A1 (1)
  178    70          63.5646544146        1729.6821819629     SG+        A1 (1)
  179   181          66.2417660988        1802.5300944075      PI        B2 (3)
  180   129          66.2417660988        1802.5300944076      PI        B1 (2)
  181    71          66.7225004078        1815.6115400040     SG+        A1 (1)
  182   182          98.4931735782        2680.1355085179      PH        B2 (3)
  183   130          98.4931735782        2680.1355085179      PH        B1 (2)
  184   215          98.5101969585        2680.5987382473      DE        A2 (4)
  185    72          98.5101969585        2680.5987382473      DE        A1 (1)
  186   131          98.5256461168        2681.0191312160      PI        B1 (2)
  187   183          98.5256461168        2681.0191312160      PI        B2 (3)
  188    73          98.5314956240        2681.1783043996     SG+        A1 (1)
  189   184         103.3309274164        2811.7774830058      PI        B2 (3)
  190   132         103.3309274164        2811.7774830058      PI        B1 (2)
  191   216         103.3317371249        2811.7995162924      DE        A2 (4)
  192    74         103.3317371249        2811.7995162929      DE        A1 (1)
  193    75         103.3416792624        2812.0700556079     SG+        A1 (1)
  194   185         103.3499902439        2812.2962089131      PH        B2 (3)
  195   133         103.3499902439        2812.2962089131      PH        B1 (2)
  196   217         114.9422999330        3127.7389923547      DE        A2 (4)
  197    76         114.9422999330        3127.7389923547      DE        A1 (1)
  198   134         115.0253517693        3129.9989477145      PI        B1 (2)
  199   186         115.0253517693        3129.9989477145      PI        B2 (3)
  200    77         115.1844802889        3134.3290548701     SG+        A1 (1)
  201   135         116.6306639405        3173.6817126818      PI        B1 (2)
  202   187         116.6306639405        3173.6817126819      PI        B2 (3)
  203    78         117.2228805306        3189.7967453701     SG+        A1 (1)
  204    79         121.7315815965        3312.4847387097     SG+        A1 (1)
  205   218         198.5782902958        5403.5899921566      DE        A2 (4)
  206    80         198.5782902958        5403.5899921566      DE        A1 (1)
  207   136         198.6619054262        5405.8652755268      PI        B1 (2)
  208   188         198.6619054262        5405.8652755269      PI        B2 (3)
  209    81         198.7318856420        5407.7695340085     SG+        A1 (1)
  210    82         216.1089885350        5880.6245432112     SG+        A1 (1)
  211   189         224.7362184766        6115.3834048339      PI        B2 (3)
  212   137         224.7362184766        6115.3834048339      PI        B1 (2)
  213    83         225.1140839954        6125.6656483379     SG+        A1 (1)
  214   190         395.1924424623       10753.7330686233      PI        B2 (3)
  215   138         395.1924424623       10753.7330686235      PI        B1 (2)
  216    84         395.6508932992       10766.2081501169     SG+        A1 (1)
  217    85         508.4973120072       13836.9153148971     SG+        A1 (1)
  218    86         894.9205600158       24352.0264711317     SG+        A1 (1)


  VSCF finished.

 @CHECKOUT-I, Total execution time (CPU/WALL):       62.21/      11.04 seconds.
--executable xvscf finished with status     0 in       11.08 seconds (walltime).
 --invoking executable--
/nfs/workspaces/public/cfour_mpi/bin/xvtran
 @GETMEM-I,  Allocated    3814 MB of main memory.
  Full RHF integral transformation
  Transformation of IIII integrals :
  1 pass through the AO integral file was required.
     4349395 AO integrals were read.
     8545032 MO integrals were written to HF2.
  Transformation of IIJJ integrals :
  1 pass through the AO integral file was required.
     9883510 AO integrals were read.
    14270492 MO integrals were written to HF2.
  Transformation of IJIJ integrals :
  1 pass through the AO integral file was required.
    18763966 AO integrals were read.
    26500243 MO integrals were written to HF2.
  Transformation of IJKL integrals :
  1 pass through the AO integral file was required.
    13837102 AO integrals were read.
    17969236 MO integrals were written to HF2.
  Summary of active molecular orbitals: 
------------------------------------------------------------------------
 
  Index      Eigenvalue    Symmetry    Index      Eigenvalue    Symmetry
------------------------------------------------------------------------
     1       -20.6208594        1       110         4.1236108        2
     2       -11.5320379        1       111         4.1583061        2
     3        -1.2189594        1       112         4.4453821        2
     4        -0.8139596        1       113         4.9432767        2
     5        -0.4817014        1       114         5.3456593        2
     6        -0.4768677        2       115         5.8724336        2
     7        -0.4768677        3       116         6.0906956        2
     8         0.0553314        1       117         6.3250400        2
     9         0.0689395        1       118         6.6280582        2
    10         0.1423426        1       119         6.8622288        2
    11         0.1618110        1       120         9.5439899        2
    12         0.2182736        1       121        10.7198383        2
    13         0.2838988        1       122        11.0075491        2
    14         0.3065461        1       123        11.9300658        2
    15         0.4073407        1       124        12.1129434        2
    16         0.5177390        1       125        13.0564599        2
    17         0.5503283        1       126        18.6393928        2
    18         0.6954400        1       127        26.3985192        2
    19         0.7290520        1       128        33.2993774        2
    20         0.8003092        1       129        47.2463292        2
    21         0.8413693        1       130        66.2417661        2
    22         0.9171152        1       131        98.4931736        2
    23         1.1604824        1       132        98.5256461        2
    24         1.2999200        1       133       103.3309274        2
    25         1.5763379        1       134       103.3499902        2
    26         1.5808410        1       135       115.0253518        2
    27         1.6524690        1       136       116.6306639        2
    28         1.8163967        1       137       198.6619054        2
    29         1.9237856        1       138       224.7362185        2
    30         2.0507931        1       139       395.1924425        2
    31         2.1106777        1       140        -0.0286585        3
    32         2.2256142        1       141         0.0805586        3
    33         2.2608704        1       142         0.1848408        3
    34         2.3454748        1       143         0.2773336        3
    35         2.5076366        1       144         0.4124013        3
    36         2.6115369        1       145         0.6252410        3
    37         2.8019224        1       146         0.7220078        3
    38         3.7033859        1       147         0.7638857        3
    39         3.7288252        1       148         0.8521883        3
    40         4.0536697        1       149         1.0636295        3
    41         4.1000456        1       150         1.4173757        3
    42         4.2693989        1       151         1.4439983        3
    43         4.3139677        1       152         1.6430689        3
    44         4.5252932        1       153         1.9860167        3
    45         4.7984303        1       154         2.1491127        3
    46         5.1198697        1       155         2.1913362        3
    47         5.8000108        1       156         2.1918702        3
    48         5.8726949        1       157         2.4440528        3
    49         6.0095588        1       158         2.6722628        3
    50         6.1079426        1       159         3.1857162        3
    51         6.2267338        1       160         3.8348689        3
    52         6.4482089        1       161         4.1236108        3
    53         6.9998146        1       162         4.1583061        3
    54         7.3049535        1       163         4.4453821        3
    55         9.1842090        1       164         4.9432767        3
    56        10.5850989        1       165         5.3456593        3
    57        10.6965033        1       166         5.8724336        3
    58        10.8868246        1       167         6.0906956        3
    59        11.0403373        1       168         6.3250400        3
    60        11.9697121        1       169         6.6280582        3
    61        12.3856356        1       170         6.8622288        3
    62        12.7263150        1       171         9.5439899        3
    63        13.2883262        1       172        10.7198383        3
    64        17.0879663        1       173        11.0075491        3
    65        19.2762325        1       174        11.9300658        3
    66        26.2295819        1       175        12.1129434        3
    67        26.7730182        1       176        13.0564599        3
    68        33.9866417        1       177        18.6393928        3
    69        35.4761312        1       178        26.3985192        3
    70        47.0923660        1       179        33.2993774        3
    71        47.3761519        1       180        47.2463292        3
    72        63.5646544        1       181        66.2417661        3
    73        66.7225004        1       182        98.4931736        3
    74        98.5101970        1       183        98.5256461        3
    75        98.5314956        1       184       103.3309274        3
    76       103.3317371        1       185       103.3499902        3
    77       103.3416793        1       186       115.0253518        3
    78       114.9422999        1       187       116.6306639        3
    79       115.1844803        1       188       198.6619054        3
    80       117.2228805        1       189       224.7362185        3
    81       121.7315816        1       190       395.1924425        3
    82       198.5782903        1       191         0.2182736        4
    83       198.7318856        1       192         0.5503283        4
    84       216.1089885        1       193         0.7290520        4
    85       225.1140840        1       194         0.8413693        4
    86       395.6508933        1       195         1.5808410        4
    87       508.4973120        1       196         1.6524690        4
    88       894.9205600        1       197         2.0507931        4
    89        -0.0286585        2       198         2.1106777        4
    90         0.0805586        2       199         2.2608704        4
    91         0.1848408        2       200         2.5076366        4
    92         0.2773336        2       201         3.7288252        4
    93         0.4124013        2       202         4.1000456        4
    94         0.6252410        2       203         4.3139677        4
    95         0.7220078        2       204         4.5252932        4
    96         0.7638857        2       205         5.8000108        4
    97         0.8521883        2       206         6.0095588        4
    98         1.0636295        2       207         6.2267338        4
    99         1.4173757        2       208         6.4482089        4
   100         1.4439983        2       209        10.6965033        4
   101         1.6430689        2       210        10.8868246        4
   102         1.9860167        2       211        11.9697121        4
   103         2.1491127        2       212        12.7263150        4
   104         2.1913362        2       213        26.2295819        4
   105         2.1918702        2       214        47.0923660        4
   106         2.4440528        2       215        98.5101970        4
   107         2.6722628        2       216       103.3317371        4
   108         3.1857162        2       217       114.9422999        4
   109         3.8348689        2       218       198.5782903        4
------------------------------------------------------------------------
  -20.6208594329000       -11.5320379462477       -1.21895943955129     
 -0.813959622641533      -0.481701398731661      -0.476867650609885     
[...]
 Perturbed amplitude equations converged in    23 iterations.
  Dominant contributions to perturbed wavefunction:
    7    0   46    0   0.3892101708 AA  
    7    0   22    0   0.3279272727 AA  
    7    0   32    0   0.2634499252 AA  
    7    0   36    0   0.2459673925 AA  
    7    0   28    0   0.2418736599 AA  
    7    7  140   46  -0.2348535081 ABAB
    7    7   46  140  -0.2348535081 ABAB
    7    0   54    0  -0.2318726591 AA  
    7    0   16    0  -0.2304087689 AA  
    7    7  140   22  -0.2246794559 ABAB
    7    7   22  140  -0.2246794559 ABAB
    7    0   25    0   0.2129336166 AA  
    7    0   37    0   0.2093319580 AA  
    7    0   56    0   0.2024857363 AA  
    7    0   24    0   0.1956825526 AA  
    7    7  140   32  -0.1878407684 ABAB
    7    7   32  140  -0.1878407684 ABAB
    7    0   63    0   0.1849071922 AA  
    7    0   38    0   0.1749116270 AA  
    7    0   40    0   0.1697366099 AA  
  norm of converged amps    1.57539163215523     
 Starting iterative solution of the perturbed Lambda equations.
 The DIIS procedure is used to accelerate convergence.
 Convergence criterion is 10**(-7).
 Maximum number of iterations is 100.
 Convergence information after     1 iterations: 
 Largest element of residual vector :  0.74610345E-01.
 Largest element of DIIS residual   :  0.74610345E-01.
 Convergence information after     2 iterations: 
 Largest element of residual vector :  0.20681383E-01.
 Largest element of DIIS residual   :  0.14767915E-01.
 Convergence information after     3 iterations: 
 Largest element of residual vector :  0.69359061E-02.
 Largest element of DIIS residual   :  0.55603589E-02.
 Convergence information after     4 iterations: 
 Largest element of residual vector :  0.27855520E-02.
 Largest element of DIIS residual   :  0.27064367E-02.
 Convergence information after     5 iterations: 
 Largest element of residual vector :  0.28047525E-02.
 Largest element of DIIS residual   :  0.24989756E-02.
 Convergence information after     6 iterations: 
 Largest element of residual vector :  0.17657451E-02.
 Largest element of DIIS residual   :  0.10152345E-02.
 Convergence information after     7 iterations: 
 Largest element of residual vector :  0.10788926E-02.
 Largest element of DIIS residual   :  0.51026838E-03.
 Convergence information after     8 iterations: 
 Largest element of residual vector :  0.40644006E-03.
 Largest element of DIIS residual   :  0.19375090E-03.
 Convergence information after     9 iterations: 
 Largest element of residual vector :  0.15394008E-03.
 Largest element of DIIS residual   :  0.98658095E-04.
 Convergence information after    10 iterations: 
 Largest element of residual vector :  0.11911155E-03.
 Largest element of DIIS residual   :  0.90576356E-04.
 Convergence information after    11 iterations: 
 Largest element of residual vector :  0.51523862E-04.
 Largest element of DIIS residual   : -0.23685329E-04.
 Convergence information after    12 iterations: 
 Largest element of residual vector :  0.37792309E-04.
 Largest element of DIIS residual   :  0.19281920E-04.
 Convergence information after    13 iterations: 
 Largest element of residual vector :  0.12136840E-04.
 Largest element of DIIS residual   :  0.85234942E-05.
 Convergence information after    14 iterations: 
 Largest element of residual vector :  0.10223948E-04.
 Largest element of DIIS residual   :  0.47983854E-05.
 Convergence information after    15 iterations: 
 Largest element of residual vector :  0.58288043E-05.
 Largest element of DIIS residual   :  0.32506652E-05.
 Convergence information after    16 iterations: 
 Largest element of residual vector :  0.23568670E-05.
 Largest element of DIIS residual   :  0.76284676E-06.
 Convergence information after    17 iterations: 
 Largest element of residual vector :  0.14833777E-05.
 Largest element of DIIS residual   :  0.75484724E-06.
 Convergence information after    18 iterations: 
 Largest element of residual vector :  0.39278106E-06.
 Largest element of DIIS residual   :  0.23591613E-06.
 Convergence information after    19 iterations: 
 Largest element of residual vector :  0.36087334E-06.
 Largest element of DIIS residual   :  0.19291021E-06.
 Convergence information after    20 iterations: 
 Largest element of residual vector :  0.15013158E-06.
 Largest element of DIIS residual   :  0.11098744E-06.
 Convergence information after    21 iterations: 
 Largest element of residual vector :  0.12626359E-06.
 Largest element of DIIS residual   :  0.47914021E-07.
 Perturbed Lambda equations converged in    21 iterations.
  Dominant contributions to perturbed wavefunction:
    7    7  140   46  -0.1407807604 ABAB
    7    7   46  140  -0.1407807604 ABAB
    7    7  140   22  -0.1386109343 ABAB
    7    7   22  140  -0.1386109343 ABAB
    7    0   46    0   0.1187133710 AA  
    7    7  140   32  -0.1166442864 ABAB
    7    7   32  140  -0.1166442864 ABAB
    7    0   22    0   0.0943107156 AA  
    7    7  140   36  -0.0934728983 ABAB
    7    7   36  140  -0.0934728983 ABAB
    7    6   46   89  -0.0913369232 ABAB
    6    7   89   46  -0.0913369232 ABAB
    7    6   22   89  -0.0888896067 ABAB
    6    7   89   22  -0.0888896067 ABAB
    7    7  140   16   0.0876023416 ABAB
    7    7   16  140   0.0876023416 ABAB
    7    5   46   10  -0.0838250223 ABAB
    5    7   10   46  -0.0838250223 ABAB
    7    7  140   56  -0.0824282034 ABAB
    7    7   56  140  -0.0824282034 ABAB
        The DBOC first-order density matrix is being calculated 
             (Symmetry block 3, perturbation   2)
 term   2.65703843916556     
 final tnorm  0.592155922949711     
  norm contr. I: |<0|L dT/dx|0>|^2   0.000000000000000E+000
  norm contr. II: <0|[nabla(1+L)e-T][nabla e^T]|0>   2.65703843916556     
  total norm contribution   2.65703843916556     
 oo  1.307150428144575E-002
 vv  -17.6366198348878     
 vo -4.858266437596022E-002
  Correlated perturbed 1-el contribution to DBOC  -17.6721309949823       cm**-1
  SUM_I |dc_I/dx|^2 contribution to DBOC   8.88885310329044       cm**-1
 
 
  The total diagonal Born-Oppenheimer correction (DBOC) is:      0.0038622480 a.u.
  The total diagonal Born-Oppenheimer correction (DBOC) is:        847.665451 cm-1
 
 Total CC energy including DBOC  -112.990303621940     
 First-order density matrix is being calculated  (Symmetry block 3, perturbation   2)
 Calculation of the contributions of <pq||rs> to dI(i,j)/dx required   3.2 seconds.
 Calculation of the contributions of <pq||rs> to dI(a,b)/dx required  15.9 seconds.
 Calculation of the contributions of <pq||rs> to dI(i,a)/dx required   8.8 seconds.
 First-order Z-vector equations are solved for 1 perturbation.
 Convergence reached after  20 iterations.
        U*G(pq,rs) contribution is being calculated
             (Symmetry block 3, perturbation   2)

 CCSD contribution to force constants 

        0.0000000000        0.0000000000        0.0000000000
        0.0000000000        0.0000000000        0.0000000000
        0.0000000000        0.0000000000        0.0000000000
        0.0000000000        0.0000000000        0.0000000000
        0.0000000000        0.0000000000        0.0000000000
        0.0000000000        0.0000000000        0.0000000000
        0.0000000000        0.0000000000        0.0000000000
        0.0000000000        0.0000000000        0.0000000000
        0.0000000000        0.0000000000        0.0000000000
        0.0000000000        0.0000000000        0.0000000000
        0.0000000000        0.0000000000        0.0000000000
        0.0000000000      -12.4498213517       12.4498213517

 CCSD contribution to dipole derivatives 

        0.0000000000        0.0000000000        0.0000000000
        0.0000000000        0.0000000000        0.0000000000
        0.0000000000        0.0000000000        0.0000000000
        0.0000000000        0.0000000000       -0.0538331596
        0.0000000000        0.0000000000        0.0000000000
        0.0000000000        0.0000000000        0.0000000000
 @CHECKOUT-I, Total execution time (CPU/WALL):     1289.94/     472.62 seconds.
--executable xsdcc finished with status     0 in      472.88 seconds (walltime).
 --invoking executable--
/nfs/workspaces/public/cfour_mpi/bin/xanti
 @GETMEM-I,  Allocated    3814 MB of main memory.
 CCSD MO derivative gammas will be sorted to Mulliken order.
 @CHECKOUT-I, Total execution time (CPU/WALL):       11.66/      25.63 seconds.
--executable xanti finished with status     0 in       25.86 seconds (walltime).
 --invoking executable--
/nfs/workspaces/public/cfour_mpi/bin/xbcktrn
 @GETMEM-I,  Allocated    3814 MB of main memory.
 CCSD MO derivative gammas will be transformed to the AO basis.
 @CHECKOUT-I, Total execution time (CPU/WALL):       19.79/       4.60 seconds.
--executable xbcktrn finished with status     0 in        4.67 seconds (walltime).
 --invoking executable--
/nfs/workspaces/public/cfour_mpi/bin/xvdint
 @GETMEM-I,  Allocated    3814 MB of main memory.
 One- and two-electron integral derivatives are calculated
 for RHF-CC/MBPT hessians and dipole derivatives.
 Spherical gaussians are used.
  magnet F F
                    8722  records have been written to the Sort file.
  Total length of Sort file :             178609116  words.
 Evaluation of 2el integral derivatives

                      Two-electron integral gradient
                      ------------------------------

                         C #1 z     0.0000000000
                         O #2 z     0.0000000000


 C #1       0.0000000000            0.0490982529            0.0000000000
 O #2       0.0000000000           -0.0490982529            0.0000000000


 Evaluation of 2e integral derivatives required  322.81 seconds.
  contribution to Hessian
        0.0000000000        0.0000000000        0.0000000000
        0.0000000000        0.0490982529       -0.0490982529
 @CHECKOUT-I, Total execution time (CPU/WALL):      322.79/      66.28 seconds.
--executable xvdint finished with status     0 in       66.47 seconds (walltime).
 --invoking executable--
/nfs/workspaces/public/cfour_mpi/bin/xanti
 @GETMEM-I,  Allocated    3814 MB of main memory.
 CCSD MO gammas will be sorted to Mulliken order.
 @CHECKOUT-I, Total execution time (CPU/WALL):       16.42/      40.10 seconds.
--executable xanti finished with status     0 in       40.22 seconds (walltime).
 --invoking executable--
/nfs/workspaces/public/cfour_mpi/bin/xbcktrn
 @GETMEM-I,  Allocated    3814 MB of main memory.
 CCSD MO gammas will be transformed to the AO basis.
 @CHECKOUT-I, Total execution time (CPU/WALL):       42.26/      10.66 seconds.
--executable xbcktrn finished with status     0 in       10.73 seconds (walltime).
 --invoking executable--
/nfs/workspaces/public/cfour_mpi/bin/xvdint
 @GETMEM-I,  Allocated    3814 MB of main memory.
 One- and two-electron integral derivatives are calculated
 for RHF-CC/MBPT hessians and dipole derivatives.
 Spherical gaussians are used.
  magnet F F

                     Kinetic energy integral gradient
                     --------------------------------

                         C #1 z    -0.3462184809
                         O #2 z     0.3462184809


 C #1       0.0000000000            0.0000000000           -0.3462184809
 O #2       0.0000000000            0.0000000000            0.3462184809



                   Nuclear attraction integral gradient
                   ------------------------------------

                         C #1 z    11.0734310768
                         O #2 z   -11.0734310768


 C #1       0.0000000000            0.0000000000           11.0734310768
 O #2       0.0000000000            0.0000000000          -11.0734310768



                      Reorthonormalization gradient
                      -----------------------------

                         C #1 z     0.0000000000
                         O #2 z     0.0000000000


 C #1       0.0000000000            0.0000000000            0.0000000000
 O #2       0.0000000000            0.0000000000            0.0000000000



                     Kinetic energy integral Hessian
                     -------------------------------


           Symmetry 1

           C #1 z      O #2 z

 C #1 z    0.370784
 O #2 z   -0.370784    0.370784


           Symmetry 2

           C #1 x      O #2 x

 C #1 x   -0.217483
 O #2 x    0.217483   -0.217483


           Symmetry 3

           C #1 y      O #2 y

 C #1 y   -0.217483
 O #2 y    0.217483   -0.217483




           C #1 x      C #1 y      C #1 z      O #2 x      O #2 y      O #2 z

 C #1 x   -0.217483
 C #1 y    0.000000   -0.217483
 C #1 z    0.000000    0.000000    0.370784

 O #2 x    0.217483    0.000000    0.000000   -0.217483
 O #2 y    0.000000    0.217483    0.000000    0.000000   -0.217483
 O #2 z    0.000000    0.000000   -0.370784    0.000000    0.000000    0.370784




                   Nuclear attraction integral Hessian
                   -----------------------------------


           Symmetry 1

           C #1 z      O #2 z

 C #1 z   -6.483137
 O #2 z    6.483137   -6.483137


           Symmetry 2

           C #1 x      O #2 x

 C #1 x    4.949638
 O #2 x   -4.949638    4.949638


           Symmetry 3

           C #1 y      O #2 y

 C #1 y    4.949638
 O #2 y   -4.949638    4.949638




           C #1 x      C #1 y      C #1 z      O #2 x      O #2 y      O #2 z

 C #1 x    4.949638
 C #1 y    0.000000    4.949638
 C #1 z    0.000000    0.000000   -6.483137

 O #2 x   -4.949638    0.000000    0.000000    4.949638
 O #2 y    0.000000   -4.949638    0.000000    0.000000    4.949638
 O #2 z    0.000000    0.000000    6.483137    0.000000    0.000000   -6.483137




                Highest order reorthonormalization Hessian
                ------------------------------------------


           Symmetry 1

           C #1 z      O #2 z

 C #1 z    0.000000
 O #2 z    0.000000    0.000000


           Symmetry 2

           C #1 x      O #2 x

 C #1 x    0.000000
 O #2 x    0.000000    0.000000


           Symmetry 3

           C #1 y      O #2 y

 C #1 y    0.000000
 O #2 y    0.000000    0.000000




           C #1 x      C #1 y      C #1 z      O #2 x      O #2 y      O #2 z




                Electronic contributions to dipole moment
                -----------------------------------------

                               au             Debye

                    z     -0.76286713     -1.93901517

  Conversion factor used: 1 a.u. =   2.54174691 Debye 



   Electronic contributions to static part of dipole moment derivatives
   --------------------------------------------------------------------


                     Total dipole moment derivatives
                     -------------------------------


           Symmetry 1
                              Ez

               C #1 z    -5.65601250
               O #2 z    -8.34398750

           Symmetry 2
                              Ex

               C #1 x    -5.70556614
               O #2 x    -8.29443386

           Symmetry 3
                              Ey

               C #1 y    -5.70556614
               O #2 y    -8.29443386



                       Ex          Ey          Ez

      C #1    x   -5.705566    0.000000    0.000000
      C #1    y    0.000000   -5.705566    0.000000
      C #1    z    0.000000    0.000000   -5.656012

      O #2    x   -8.294434    0.000000    0.000000
      O #2    y    0.000000   -8.294434    0.000000
      O #2    z    0.000000    0.000000   -8.343988

 Evaluation of 1e integral derivatives required    2.02 seconds.
                    8815  records have been written to the Sort file.
  Total length of Sort file :             180513570  words.
 Evaluation of 2el integral derivatives

                      Two-electron integral gradient
                      ------------------------------

                         C #1 z    -6.1032163704
                         O #2 z     6.1032163704


 C #1       0.0000000000            0.0000000000           -6.1032163704
 O #2       0.0000000000            0.0000000000            6.1032163704


 Evaluation of 2e integral derivatives required  605.02 seconds.

                            Molecular gradient
                            ------------------

                         C #1 z     0.4754272897
                         O #2 z    -0.4754272897


 C #1       0.0000000000            0.0000000000            0.4754272897
 O #2       0.0000000000            0.0000000000           -0.4754272897


  Molecular gradient norm 0.672E+00

                            Molecular hessian
                            -----------------


           Symmetry 1

           C #1 z      O #2 z

 C #1 z    5.546479
 O #2 z   -5.546479    5.546479


           Symmetry 2

           C #1 x      O #2 x

 C #1 x   12.617308
 O #2 x  -12.617308   12.617308


           Symmetry 3

           C #1 y      O #2 y

 C #1 y   12.617308
 O #2 y  -12.617308   12.617308




           C #1 x      C #1 y      C #1 z      O #2 x      O #2 y      O #2 z

 C #1 x   12.617308
 C #1 y    0.000000   12.617308
 C #1 z    0.000000    0.000000    5.546479

 O #2 x  -12.617308    0.000000    0.000000   12.617308
 O #2 y    0.000000  -12.617308    0.000000    0.000000   12.617308
 O #2 z    0.000000    0.000000   -5.546479    0.000000    0.000000    5.546479




                           Total dipole moment
                           -------------------

                               au             Debye

                    z      0.59720279      1.51793833

  Conversion factor used: 1 a.u. =   2.54174691 Debye 



                     Total dipole moment derivatives
                     -------------------------------


           Symmetry 1
                              Ez

               C #1 z     0.28659298
               O #2 z    -0.28659298

           Symmetry 2
                              Ex

               C #1 x     0.19415330
               O #2 x    -0.19415330

           Symmetry 3
                              Ey

               C #1 y     0.19415330
               O #2 y    -0.19415330



                       Ex          Ey          Ez

      C #1    x    0.194153    0.000000    0.000000
      C #1    y    0.000000    0.194153    0.000000
      C #1    z    0.000000    0.000000    0.286593

      O #2    x   -0.194153    0.000000    0.000000
      O #2    y    0.000000   -0.194153    0.000000
      O #2    z    0.000000    0.000000   -0.286593

 @CHECKOUT-I, Total execution time (CPU/WALL):      607.03/     108.50 seconds.
--executable xvdint finished with status     0 in      108.68 seconds (walltime).
 --invoking executable--
/nfs/workspaces/public/cfour_mpi/bin/xjoda
  @GTFLGS-I, Hessian will be transformed to curvilinear coordinates.
  @GTFLGS-I, Hessian will be transformed to curvilinear coordinates.
  igrd and ihes are                      0                     1
  gradient from JOBARC 
   0.000000000000000   0.000000000000000   0.475427289666518
   0.000000000000000   0.000000000000000  -0.475427289666518
 
  @PROJFCM-I, Projecting force constant matrix onto totally symmetric subspace.
  Largest difference between matrix elements of symmetrized
  and unsymmetrized FCM :    -0.8881784197E-14.
  read isotopes from ZMAT file 
 
  Summary of diagonal Born-Oppenheimer correction at the correlated level
  The total diagonal Born-Oppenheimer correction (DBOC) is:      0.0038622480 a.u.
  The total diagonal Born-Oppenheimer correction (DBOC) is:        847.665451 cm-1
  The total diagonal Born-Oppenheimer correction (DBOC) is:            10.140 kJ/mole
  hellooooooo 
  readis is  F
 
 @CHECKOUT-I, Total execution time (CPU/WALL):        0.02/       0.10 seconds.
--executable xjoda finished with status     0 in        0.20 seconds (walltime).
  The final electronic energy is      -112.990303621939560 a.u. 
  This computation required                         4028.99 seconds (walltime).
