 --invoking executable--
/nfs/workspaces/public/cfour_mpi/bin/xjoda


   *************************************************************************
         <<<     CCCCCC     CCCCCC   |||     CCCCCC     CCCCCC   >>>
       <<<      CCC        CCC       |||    CCC        CCC         >>>
      <<<      CCC        CCC        |||   CCC        CCC            >>>
    <<<        CCC        CCC        |||   CCC        CCC              >>>
      <<<      CCC        CCC        |||   CCC        CCC            >>>
       <<<      CCC        CCC       |||    CCC        CCC         >>>
         <<<     CCCCCC     CCCCCC   |||     CCCCCC     CCCCCC   >>>
   *************************************************************************

     ****************************************************************
     * CFOUR Coupled-Cluster techniques for Computational Chemistry *
     ****************************************************************
 

   Department of Chemistry                Institut fuer Physikalische Chemie
   University of Florida                  Universitaet Mainz
   Gainesville, FL 32611, USA             D-55099 Mainz, Germany

   Department of Chemistry                Fakultaet fuer Chemie und Biowiss.
   Johns Hopkins University               Karlsruher Institut fuer Technologie
   Baltimore, MD 21218, USA               D-76131 Karlsruhe, Germany

   Department of Chemistry                Department of Physical Chemistry
   Southern Methodist University          Eotvos Lorand University
   Dallas, TX 75275, USA                  H-1053 Budapest, Hungary

 
                       Version 2.1
 
                     vincent.theory.phys.ucl.ac.uk                     
                     Sat  1 Mar 12:16:49 GMT 2025                      
                     integer*8 version is running
 
********************************************************************************
*                          Input from ZMAT file                                *
********************************************************************************
Carbon Monoxide DBOC calculation                                                
C                                                                               
O 1 r                                                                           
                                                                                
r=1.0241379310344827                                                            
                                                                                
                                                                                
*CFOUR(CALC=CCSD,BASIS=AUG-PCVQZ,SCF_CONV=10                                    
CC_CONV=14,DBOC=ON,MEMORY=500000000                                             
ZFIELD=-200)                                                                    
                                                                                
%isotopes                                                                       
12                                                                              
18                                                                              
********************************************************************************
  @GTFLGS-I, Hessian will be transformed to curvilinear coordinates.
    -------------------------------------------------------------------
                    CFOUR Control Parameters 
    -------------------------------------------------------------------
        External           Internal           Value            Units
          Name               Name
    -------------------------------------------------------------------
       ABCDTYPE             IABCDT         STANDARD    [  0]    ***   
       ANHARMONIC           IANHAR         OFF         [  0]    ***   
       ANH_ALGORIT          IANALG         STANDARD    [  0]    ***   
       ANH_DERIVAT          IANDER         SECOND      [  1]    ***   
       ANH_MODE             ANHMOD         VIBRATION   [  0]    ***   
       ANH_STEPSIZ          ICUBST             50000          x 10-6  
       ANH_SYMMETR          IANHSM         ABELIAN     [  0]    ***   
       AO_LADDERS           IAOLAD         SINGLEPASS  [  1]    ***   
       AV_SCF               IAVSCF         OFF         [  0]    ***   
       BASIS                IBASIS         AUG-PCVQZ   [ 52]    ***   
       BOTHVECTORS          BOTHVC         OFF         [  0]    ***   
       BOX_POTENT           IPIAB          OFF         [  0]    ***   
       BREIT                IBREIT         OFF         [  0]    ***   
       BRUCK_CONV           IBRTOL          10D-  4             ***   
       BRUECKNER            IBRKNR         OFF         [  0]    ***   
       BUFFERSIZE           IBUFFS              4096            ***   
       CACHE_RECS           ICHREC             10               ***   
       CALCLEVEL            ICLLVL         CCSD        [ 10]    ***   
       CCORBOPT             ICCORB         OFF         [  0]  x 0.01  
       CC_CONV              ICCCNV          10D- 14             ***   
       CC_EXPORDER          ICCEOR              5               ***   
       CC_EXTRAPOL          ICCEXT         DIIS        [  1]    ***   
       CC_GUESS             ICCGES         MP2         [  0]    ***   
       CC_MAXCYC            ICCCYC            100              cycles 
       CC_PROGRAM           ICCPRO         VCC         [  0]    ***   
       CHARGE               ICHRGE              0               ***   
       CHOLESKY             ICHOLE         OFF         [  0]    ***   
       CIS_CONV             ICISTL              5               ***   
       COMM_SIZE            IPSIZE            ***               ***   
       CONSTANT             ICONST         OLD         [  1]    ***   
       CONTINUUM            ICONTU         NONE        [  0]    ***   
       CONTRACTION          ICNTYP         GENERAL     [  1]    ***   
       COORDINATES          ICOORD         INTERNAL    [  0]    ***   
       CPHF_CONVER          ICPHFT          10D- 16             ***   
       CPHF_MAXCYC          ICPHFC             64              cycles 
       CUBIC                ICUBIC         OFF         [  0]    ***   
       CURVILINEAR          ICURVY         ON          [  1]    ***   
       DBOC                 IDBOC          ON          [  1]    ***   
       DCT                  IDCT           OFF         [  0]    ***   
       DERIV_LEV            IDRLVL         SECOND      [  2]    ***   
       DEVMEM_SIZE          IDVMEM          50000000           MByte  
       DIAG_MRCC            IEOMST          10D-  0             ***   
       DIFF_TYPE            IDIFTY         RELAXED     [  0]    ***   
       DIRECT               IDIRCT         OFF         [  0]    ***   
       DROPMO               IDRPMO      NONE         
       ECP                  IECP           OFF         [  0]    ***   
       EIGENVECTOR          IVEC                1               ***   
       EL_ANHARM            IELANH         OFF         [  0]    ***   
       EOMFOLLOW            IEOMSR         ENERGY      [  0]    ***   
       EOMIP                IEOMIP         OFF         [  0]    ***   
       EOMLEVEL             HBARFM         SAME        [  0]    ***   
       EOM_MRCC             IMRCCE         NEW         [  1]    ***   
       EOM_NONIT            EOMNON         OFF         [  0]    ***   
       EOM_NSING            IEOMSI          10D-  0             ***   
       EOM_NSTATES          IMRCCD         DAVIDSON    [  0]    ***   
       EOM_NTRIP            IEOMTR          10D-  0             ***   
       EOM_ORDER            IEXORD         ENERGY      [  0]    ***   
       EOM_PROPSTA          IEOMST              0               ***   
       ESTATE_CONV          IEXTOL          10D-  5             ***   
       ESTATE_DIAG          IEXDIG         ITERATIVE   [  0]    ***   
       ESTATE_LOCK          IESLOC         ON          [  1]    ***   
       ESTATE_MAXC          IEXMXC             40               ***   
       ESTATE_PROP          IEXPRP         OFF         [  0]    ***   
       EVAL_HESS            IRECAL              0            # of cyc.
       EXCITATION           IEXCIT              0               ***   
       EXCITE               IEXCIT         NONE        [  0]    ***   
       EXTERN_POT           IEXPOT         OFF         [  0]    ***   
       FCGRADNEW            IFCGNW         OFF         [  0]    ***   
       FC_FIELD             IFINFC              0             x 10-6  
       FD_CALTYPE           IFDCAL         GRADONLY    [  0]    ***   
       FD_PROJECT           IFDPRJ         OFF         [  1]    ***   
       FD_STEPSIZE          IDISFD              0            10-4 bohr
       FD_USEGROUP          IFDGRP         FULL        [  0]    ***   
       FILE_RECSIZ          IFLREC              4096           words  
       FINITE_PERT          IFIPER              0             x 10-6  
       FIXGEOM              IFIXGM         OFF         [  0]    ***   
       FOCK                 IFOCK          AO          [  1]    ***   
       FREQ_ALGORI          IVIALG         STANDARD    [  0]    ***   
       FROZEN_CORE          IFROCO         OFF         [  0]    ***   
       GAMMA_ABCD           IGABCD         STORE       [  0]    ***   
       GAMMA_ABCI           IGABCI         STORE       [  0]    ***   
       GENBAS_1             IGNBS1              0               ***   
       GENBAS_2             IGNBS2              0               ***   
       GENBAS_3             IGNBS3              0               ***   
       GENBAS_4             IGNBS4              0               ***   
       GEO_CONV             ICONTL              5              H/bohr 
       GEO_MAXCYC           IOPTCY             50               ***   
       GEO_MAXSTEP          IMXSTP            300            millibohr
       GEO_METHOD           INR            SINGLE_POINT[  5]    ***   
       GIAO                 IGIAO          OFF         [  1]    ***   
       GIMIC                IGIMIC         OFF         [  0]    ***   
       GRID                 IGRID          OFF         [  0]    ***   
       GRID_ALGO            IGALGO         SERIAL      [  0]    ***   
       GUESS                IGUESS         MOREAD      [  0]    ***   
       HBAR                 IHBAR          OFF         [  0]    ***   
       HESS_TYPE            IHESTP         SCF         [  0]    ***   
       HF2_FILE             IHF2Fl         USE         [  1]    ***   
       HFSTABILITY          ISTABL         OFF         [  0]    ***   
       INCORE               INCORE         OFF         [  0]    ***   
       INPUT_MRCC           IMRCC          ON          [  1]    ***   
       INTEGRALS            INTTYP         VMOL        [  1]    ***   
       JODA_PRINT           IJPRNT              0               ***   
       KEYWORD_OUT          IDMPKW         NO          [  0]    ***   
       LINDEP_TOL           ILINDP              8               ***   
       LINEQ_CONV           IZTACN          10D-  7           cycles  
       LINEQ_EXPOR          ILMAXD              5               ***   
       LINEQ_MAXCY          ILMAXC            100               ***   
       LINEQ_TYPE           ILTYPE         DIIS        [  1]    ***   
       LOCK_ORBOCC          ILOCOC         OFF         [  0]    ***   
       MEMORY_SIZE          IMEMSZ         500000000           words  
       MEM_UNIT             IMEMU          INTEGERWORDS[  0]    ***   
       MRCC                 IMRCCC         OFF         [  0]    ***   
       MULTIPLICTY          IMULTP              1               ***   
       NACOUPLING           IVCOUP         OFF         [  0]    ***   
       NEGEVAL              IDIE           ABORT       [  0]    ***   
       NEWNORM              INEWNO         OFF         [  0]    ***   
       NON-HF               INONHF         OFF         [  0]    ***   
       NTOP_TAMP            ITOPT2             15               ***   
       NUC_MODEL            INUCMO         POINT       [  0]    ***   
       OCCUPATION           IOCCU   ESTIMATED BY SCF 
       OPEN-SHELL           IOPEN          SPIN-ORBITAL[  0]    ***   
       OPTVIB               IOPTVB         OFF         [  0]    ***   
       ORBITALS             IORBTP         STANDARD    [  0]    ***   
       PARALLEL             IPARAL         ON          [  1]    ***   
       PARA_INT             IPINTS         ON          [  1]    ***   
       PARA_PRINT           IPPRIN              0               ***   
       PERT_ORB             IPTORB         STANDARD    [  0]    ***   
       POINTS               IGRDFD              0               ***   
       PRINT                IPRNT               0               ***   
       PROPS                IPROPS         OFF         [  0]    ***   
       PROP_INTEGR          IINTYP         INTERNAL    [  0]    ***   
       PSI                  IPSI           OFF         [  0]    ***   
       QC_ALG               IQCALG         FLM         [  0]    ***   
       QC_LINALG            IQCLIN         TRIDIAG     [  2]    ***   
       QC_MAXCYC            IQCMAX          10D-100           cycles  
       QC_MAXSCFCY          IQCMSC          10D- 15           cycles  
       QC_RTRUST            IQCRTR          10D-  0           x 10-3  
       QC_SKIPSCF           IQCSKI         OFF         [  0]    ***   
       QC_START             IQCSTA          10D-  1             ***   
       QRHFGUESS            IQGUES         OFF         [  0]    ***   
       QUARTIC              IQUART         OFF         [  0]    ***   
       RAMAN_INT            IRAMIN         OFF         [  0]    ***   
       RAMAN_ORB            IRAMRE         UNRELAXED   [  0]    ***   
       RDO                  IRDOFM         ON          [  1]    ***   
       REDUCE_REPR          REDREP         Ir          [  0]    ***   
       REFERENCE            IREFNC         RHF         [  0]    ***   
       RELATIVIST           IRELAT         OFF         [  0]    ***   
       RELAX_DENS           IRDENS         ON          [  1]    ***   
       RESET_FLAGS          IRESET         OFF         [  0]    ***   
       RESTART_CC           ICCRES         OFF         [  0]    ***   
       ROT_EVEC             ROTVEC              0               ***   
       SAVE_INTS            ISVINT         OFF         [  0]    ***   
       SCALE_ON             ISTCRT              0               ***   
       SCF_CONV             ISCFCV          10D- 10             ***   
       SCF_DAMPING          IDAMP               0             x 10-3  
       SCF_EXPORDE          IRPPOR              6               ***   
       SCF_EXPSTAR          IRPPLS              8               ***   
       SCF_EXTRAPO          IRPP           ON          [  1]    ***   
       SCF_MAXCYC           ISCFCY            150              cycles 
       SCF_NOSTOP           ISCFST         OFF         [  0]    ***   
       SCF_PRINT            ISCFPR              0               ***   
       SCF_PROG             ISCFPR         SCF         [  0]    ***   
       SD_FIELD             IFINSD              0             x 10-6  
       SOPERT               IPERSO         OFF         [  0]    ***   
       SPHERICAL            IDFGHI         ON          [  1]    ***   
       SPINORBIT            ISOCAL         OFF         [  0]    ***   
       SPINROTATIO          ISRCON         OFF         [  0]    ***   
       SPIN_FLIP            ISPFLP         OFF         [  0]    ***   
       SPIN_ORBIT           ISPORB         OFF         [  0]    ***   
       SPIN_SCAL            ISCSMP         OFF         [  0]    ***   
       STEEPSCALE           ISTPSC              1000          x 10-3  
       SUBGROUP             ISUBGP         DEFAULT     [  0]    ***   
       SUBGRPAXIS           ISBXYZ         X           [  0]    ***   
       SYMMETRY             ISYM           ON          [  0]    ***   
       SYM_CHECK            ISYMCK         OVERRIDE    [  1]    ***   
       T3_EXTRAPOL          IT3EXT         OFF         [  0]    ***   
       T4_EXTRAPOL          IT4EXP         OFF         [  0]    ***   
       TAMP_SUM             IEVERY              5               ***   
       TESTSUITE            ITESTS         OFF         [  0]    ***   
       THERMOCH             ITHERM         OFF         [  0]    ***   
       TOL_CHOLESK          ITOLCH          10D-  4             ***   
       TRANGRAD             IRESRM         OFF         [  0]    ***   
       TRANS_INV            ITRAIN         IGNORE      [  1]    ***   
       TREAT_PERT           ITREAT         SIMULTANEOUS[  0]    ***   
       TRIP_ALGORI          ITRALG         NORMAL      [  0]    ***   
       UIJ_THRESHO          IUIJTH              1               ***   
       UNITS                IUNITS         ANGSTROM    [  0]    ***   
       UNOS                 IUNOS          OFF         [  0]    ***   
       UPDATE_HESS          IHUPDT         ON          [  1]    ***   
       VIBPHASE             ISETPH         STANDARD    [  0]    ***   
       VIBRATION            IVIB           ANALYTIC    [  1]    ***   
       VIB_ALGORIT          IGEALG         STANDARD    [  0]    ***   
       VNATORB              IVNORB         OFF         [  0]    ***   
       VTRAN                IVTRAN         FULL/PARTIAL[  0]    ***   
       XFIELD               IXEFLD              0             x 10-6  
       XFORM_TOL            IXFTOL          10D- 11             ***   
       YFIELD               IYEFLD              0             x 10-6  
       ZFIELD               IZEFLD            ***             x 10-6  
       ZSCALE_EXP           IZEXPS         OFF         [  0]    ***   
    -------------------------------------------------------------------
   2 entries found in Z-matrix 
   Job Title : Carbon Monoxide DBOC calculation                                                
   There are  1 unique internal coordinates.
   Of these,  0 will be optimized.
   User supplied Z-matrix: 
--------------------------------------------------------------------------------
       SYMBOL    BOND      LENGTH    ANGLE     ANGLE     DIHED     ANGLE
                  TO      (ANGST)    WRT      (DEG)      WRT      (DEG)
--------------------------------------------------------------------------------
        C    
        O          1         r    
                  *Initial values for internal coordinates* 
                      Name             Value
                        r               1.0241379310
--------------------------------------------------------------------------------
  read isotopes from ZMAT file 
   Rotational constants (in cm-1): 
          2.2323138827             2.2323138827
   Rotational constants (in MHz): 
      66923.0959682628         66923.0959682628
********************************************************************************
   The full molecular point group is CXv .
   The largest Abelian subgroup of the full molecular point group is C2v .
   The computational point group is C2v .
********************************************************************************
--------------------------------------------------------------------------------
   Analysis of internal coordinates specified by Z-matrix 
--------------------------------------------------------------------------------
   *The nuclear repulsion energy is   24.801835797979798 a.u.
   *There is   1 degree of freedom within the tot. symm. molecular subspace.
   *Z-matrix requests optimization of   0 coordinates.
   *The optimization is constrained.
   *The following   1 parameters can have non-zero 
    derivatives within the totally symmetric subspace:
             r    [ 1]
   *The following   0 parameters are to be optimized:

   *The following coordinates must be varied in an  unconstrained optimization.
             r    [ 1]
--------------------------------------------------------------------------------


 ----------------------------------------------------------------
         Coordinates used in calculation (QCOMP) 
 ----------------------------------------------------------------
 Z-matrix   Atomic            Coordinates (in bohr)
  Symbol    Number           X              Y              Z
 ----------------------------------------------------------------
     C         6        -0.00000000     0.00000000     1.16118270
     O         8         0.00000000     0.00000000    -0.77415791
 ----------------------------------------------------------------
 
   Interatomic distance matrix (Angstroms) 
 
                 C             O    
                [ 1]        [ 2]
  C    [ 1]     0.00000
  O    [ 2]     1.02414     0.00000
 rotcon2
   Rotational constants (in cm-1): 
          2.2323138827             0.0000000000
   Rotational constants (in MHz): 
      66923.0959682628             0.0000000000
  ECPDATA file not present.   Using default ECPDATA. 
  @GTFLGS-I, Hessian will be transformed to curvilinear coordinates.
  There are  218 basis functions.
 @CHECKOUT-I, Total execution time (CPU/WALL):        0.29/       0.49 seconds.
--executable xjoda finished with status     0 in        0.52 seconds (walltime).
 --invoking executable--
/nfs/workspaces/public/cfour_mpi/bin/xvmol
 SERIAL VERSION OF MOLECULE STARTED
********************************************************************************
                    INPUT FROM MOL FILE
********************************************************************************
INTGRL        1    0    1    0    0    0    0    0    0                         
         *** CFOUR Program System (Release V0.1) ***                            
Carbon Monoxide DBOC calculation                                                
    2    2 X  Y       0.10E-08              0    0                              
   9999.00      3.00                                                            
          6.00000000    1    5    1    1    1    1    1                         
C #1  -0.000000000000000   0.000000000000000   1.161182696778573                
   16    9                                                                      
   33980.0000000000       9.100000000000000E-005 -1.900000000000000E-005        
  0.000000000000000E+000  0.000000000000000E+000  0.000000000000000E+000        
  0.000000000000000E+000  0.000000000000000E+000  0.000000000000000E+000        
  0.000000000000000E+000                                                        
   5089.00000000000       7.040000000000000E-004 -1.510000000000000E-004        
  0.000000000000000E+000  0.000000000000000E+000  0.000000000000000E+000        
  0.000000000000000E+000  0.000000000000000E+000  0.000000000000000E+000        
  0.000000000000000E+000                                                        
   1157.00000000000       3.693000000000000E-003 -7.850000000000000E-004        
  0.000000000000000E+000  0.000000000000000E+000  0.000000000000000E+000        
  0.000000000000000E+000  0.000000000000000E+000  0.000000000000000E+000        
  0.000000000000000E+000                                                        
   326.600000000000       1.536000000000000E-002 -3.324000000000000E-003        
  0.000000000000000E+000  0.000000000000000E+000  0.000000000000000E+000        
  0.000000000000000E+000  0.000000000000000E+000  0.000000000000000E+000        
  0.000000000000000E+000                                                        
   106.100000000000       5.292900000000000E-002 -1.151200000000000E-002        
  0.000000000000000E+000  0.000000000000000E+000  0.000000000000000E+000        
  0.000000000000000E+000  0.000000000000000E+000  0.000000000000000E+000        
  0.000000000000000E+000                                                        
   38.1100000000000       0.147043000000000      -3.416000000000000E-002        
  0.000000000000000E+000  0.000000000000000E+000  0.000000000000000E+000        
  0.000000000000000E+000  0.000000000000000E+000  0.000000000000000E+000        
  0.000000000000000E+000                                                        
   14.7500000000000       0.305631000000000      -7.717300000000001E-002        
  0.000000000000000E+000  0.000000000000000E+000  0.000000000000000E+000        
  0.000000000000000E+000  0.000000000000000E+000  0.000000000000000E+000        
  0.000000000000000E+000                                                        
   6.03500000000000       0.399345000000000      -0.141493000000000             
  0.000000000000000E+000  0.000000000000000E+000  0.000000000000000E+000        
  0.000000000000000E+000  0.000000000000000E+000  0.000000000000000E+000        
  0.000000000000000E+000                                                        
   2.53000000000000       0.217051000000000      -0.118019000000000             
  0.000000000000000E+000  0.000000000000000E+000  0.000000000000000E+000        
  0.000000000000000E+000  0.000000000000000E+000  0.000000000000000E+000        
  0.000000000000000E+000                                                        
  0.735500000000000       1.589400000000000E-002  0.273806000000000             
   1.00000000000000       0.000000000000000E+000  0.000000000000000E+000        
  0.000000000000000E+000  0.000000000000000E+000  0.000000000000000E+000        
  0.000000000000000E+000                                                        
  0.290500000000000      -3.084000000000000E-003  0.586510000000000             
  0.000000000000000E+000   1.00000000000000       0.000000000000000E+000        
  0.000000000000000E+000  0.000000000000000E+000  0.000000000000000E+000        
  0.000000000000000E+000                                                        
  0.111100000000000       9.779999999999999E-004  0.285430000000000             
  0.000000000000000E+000  0.000000000000000E+000   1.00000000000000             
  0.000000000000000E+000  0.000000000000000E+000  0.000000000000000E+000        
  0.000000000000000E+000                                                        
   7.21600000000000       0.000000000000000E+000  0.000000000000000E+000        
  0.000000000000000E+000  0.000000000000000E+000  0.000000000000000E+000        
   1.00000000000000       0.000000000000000E+000  0.000000000000000E+000        
  0.000000000000000E+000                                                        
   19.5700000000000       0.000000000000000E+000  0.000000000000000E+000        
  0.000000000000000E+000  0.000000000000000E+000  0.000000000000000E+000        
  0.000000000000000E+000   1.00000000000000       0.000000000000000E+000        
  0.000000000000000E+000                                                        
   53.0730000000000       0.000000000000000E+000  0.000000000000000E+000        
  0.000000000000000E+000  0.000000000000000E+000  0.000000000000000E+000        
  0.000000000000000E+000  0.000000000000000E+000   1.00000000000000             
  0.000000000000000E+000                                                        
  4.145000000000000E-002  0.000000000000000E+000  0.000000000000000E+000        
  0.000000000000000E+000  0.000000000000000E+000  0.000000000000000E+000        
  0.000000000000000E+000  0.000000000000000E+000  0.000000000000000E+000        
   1.00000000000000                                                             
   10    8                                                                      
   34.5100000000000       5.378000000000000E-003  0.000000000000000E+000        
  0.000000000000000E+000  0.000000000000000E+000  0.000000000000000E+000        
  0.000000000000000E+000  0.000000000000000E+000  0.000000000000000E+000        
   7.91500000000000       3.613200000000000E-002  0.000000000000000E+000        
  0.000000000000000E+000  0.000000000000000E+000  0.000000000000000E+000        
  0.000000000000000E+000  0.000000000000000E+000  0.000000000000000E+000        
   2.36800000000000       0.142493000000000       0.000000000000000E+000        
  0.000000000000000E+000  0.000000000000000E+000  0.000000000000000E+000        
  0.000000000000000E+000  0.000000000000000E+000  0.000000000000000E+000        
  0.813200000000000       0.342150000000000        1.00000000000000             
  0.000000000000000E+000  0.000000000000000E+000  0.000000000000000E+000        
  0.000000000000000E+000  0.000000000000000E+000  0.000000000000000E+000        
  0.289000000000000       0.463864000000000       0.000000000000000E+000        
   1.00000000000000       0.000000000000000E+000  0.000000000000000E+000        
  0.000000000000000E+000  0.000000000000000E+000  0.000000000000000E+000        
  0.100700000000000       0.250028000000000       0.000000000000000E+000        
  0.000000000000000E+000   1.00000000000000       0.000000000000000E+000        
  0.000000000000000E+000  0.000000000000000E+000  0.000000000000000E+000        
   8.18200000000000       0.000000000000000E+000  0.000000000000000E+000        
  0.000000000000000E+000  0.000000000000000E+000   1.00000000000000             
  0.000000000000000E+000  0.000000000000000E+000  0.000000000000000E+000        
   24.1860000000000       0.000000000000000E+000  0.000000000000000E+000        
  0.000000000000000E+000  0.000000000000000E+000  0.000000000000000E+000        
   1.00000000000000       0.000000000000000E+000  0.000000000000000E+000        
   71.4940000000000       0.000000000000000E+000  0.000000000000000E+000        
  0.000000000000000E+000  0.000000000000000E+000  0.000000000000000E+000        
  0.000000000000000E+000   1.00000000000000       0.000000000000000E+000        
  3.218000000000000E-002  0.000000000000000E+000  0.000000000000000E+000        
  0.000000000000000E+000  0.000000000000000E+000  0.000000000000000E+000        
  0.000000000000000E+000  0.000000000000000E+000   1.00000000000000             
    6    6                                                                      
   1.84800000000000        1.00000000000000       0.000000000000000E+000        
  0.000000000000000E+000  0.000000000000000E+000  0.000000000000000E+000        
  0.000000000000000E+000                                                        
  0.649000000000000       0.000000000000000E+000   1.00000000000000             
  0.000000000000000E+000  0.000000000000000E+000  0.000000000000000E+000        
  0.000000000000000E+000                                                        
  0.228000000000000       0.000000000000000E+000  0.000000000000000E+000        
   1.00000000000000       0.000000000000000E+000  0.000000000000000E+000        
  0.000000000000000E+000                                                        
   8.65600000000000       0.000000000000000E+000  0.000000000000000E+000        
  0.000000000000000E+000   1.00000000000000       0.000000000000000E+000        
  0.000000000000000E+000                                                        
   33.2130000000000       0.000000000000000E+000  0.000000000000000E+000        
  0.000000000000000E+000  0.000000000000000E+000   1.00000000000000             
  0.000000000000000E+000                                                        
  7.660000000000000E-002  0.000000000000000E+000  0.000000000000000E+000        
  0.000000000000000E+000  0.000000000000000E+000  0.000000000000000E+000        
   1.00000000000000                                                             
    4    4                                                                      
   1.41900000000000        1.00000000000000       0.000000000000000E+000        
  0.000000000000000E+000  0.000000000000000E+000                                
  0.485000000000000       0.000000000000000E+000   1.00000000000000             
  0.000000000000000E+000  0.000000000000000E+000                                
   24.6940000000000       0.000000000000000E+000  0.000000000000000E+000        
   1.00000000000000       0.000000000000000E+000                                
  0.187000000000000       0.000000000000000E+000  0.000000000000000E+000        
  0.000000000000000E+000   1.00000000000000                                     
    2    2                                                                      
   1.01100000000000        1.00000000000000       0.000000000000000E+000        
  0.424000000000000       0.000000000000000E+000   1.00000000000000             
          8.00000000    1    5    1    1    1    1    1                         
O #2   0.000000000000000   0.000000000000000  -0.774157912318992                
   16    9                                                                      
   61420.0000000000       9.000000000000001E-005 -2.000000000000000E-005        
  0.000000000000000E+000  0.000000000000000E+000  0.000000000000000E+000        
  0.000000000000000E+000  0.000000000000000E+000  0.000000000000000E+000        
  0.000000000000000E+000                                                        
   9199.00000000000       6.980000000000001E-004 -1.590000000000000E-004        
  0.000000000000000E+000  0.000000000000000E+000  0.000000000000000E+000        
  0.000000000000000E+000  0.000000000000000E+000  0.000000000000000E+000        
  0.000000000000000E+000                                                        
   2091.00000000000       3.664000000000000E-003 -8.290000000000000E-004        
  0.000000000000000E+000  0.000000000000000E+000  0.000000000000000E+000        
  0.000000000000000E+000  0.000000000000000E+000  0.000000000000000E+000        
  0.000000000000000E+000                                                        
   590.900000000000       1.521800000000000E-002 -3.508000000000000E-003        
  0.000000000000000E+000  0.000000000000000E+000  0.000000000000000E+000        
  0.000000000000000E+000  0.000000000000000E+000  0.000000000000000E+000        
  0.000000000000000E+000                                                        
   192.300000000000       5.242300000000000E-002 -1.215600000000000E-002        
  0.000000000000000E+000  0.000000000000000E+000  0.000000000000000E+000        
  0.000000000000000E+000  0.000000000000000E+000  0.000000000000000E+000        
  0.000000000000000E+000                                                        
   69.3200000000000       0.145921000000000      -3.626100000000000E-002        
  0.000000000000000E+000  0.000000000000000E+000  0.000000000000000E+000        
  0.000000000000000E+000  0.000000000000000E+000  0.000000000000000E+000        
  0.000000000000000E+000                                                        
   26.9700000000000       0.305258000000000      -8.299200000000000E-002        
  0.000000000000000E+000  0.000000000000000E+000  0.000000000000000E+000        
  0.000000000000000E+000  0.000000000000000E+000  0.000000000000000E+000        
  0.000000000000000E+000                                                        
   11.1000000000000       0.398508000000000      -0.152090000000000             
  0.000000000000000E+000  0.000000000000000E+000  0.000000000000000E+000        
  0.000000000000000E+000  0.000000000000000E+000  0.000000000000000E+000        
  0.000000000000000E+000                                                        
   4.68200000000000       0.216980000000000      -0.115331000000000             
  0.000000000000000E+000  0.000000000000000E+000  0.000000000000000E+000        
  0.000000000000000E+000  0.000000000000000E+000  0.000000000000000E+000        
  0.000000000000000E+000                                                        
   1.42800000000000       1.759400000000000E-002  0.288979000000000             
   1.00000000000000       0.000000000000000E+000  0.000000000000000E+000        
  0.000000000000000E+000  0.000000000000000E+000  0.000000000000000E+000        
  0.000000000000000E+000                                                        
  0.554700000000000      -2.502000000000000E-003  0.586128000000000             
  0.000000000000000E+000   1.00000000000000       0.000000000000000E+000        
  0.000000000000000E+000  0.000000000000000E+000  0.000000000000000E+000        
  0.000000000000000E+000                                                        
  0.206700000000000       9.540000000000000E-004  0.277624000000000             
  0.000000000000000E+000  0.000000000000000E+000   1.00000000000000             
  0.000000000000000E+000  0.000000000000000E+000  0.000000000000000E+000        
  0.000000000000000E+000                                                        
   12.9740000000000       0.000000000000000E+000  0.000000000000000E+000        
  0.000000000000000E+000  0.000000000000000E+000  0.000000000000000E+000        
   1.00000000000000       0.000000000000000E+000  0.000000000000000E+000        
  0.000000000000000E+000                                                        
   34.9000000000000       0.000000000000000E+000  0.000000000000000E+000        
  0.000000000000000E+000  0.000000000000000E+000  0.000000000000000E+000        
  0.000000000000000E+000   1.00000000000000       0.000000000000000E+000        
  0.000000000000000E+000                                                        
   93.8810000000000       0.000000000000000E+000  0.000000000000000E+000        
  0.000000000000000E+000  0.000000000000000E+000  0.000000000000000E+000        
  0.000000000000000E+000  0.000000000000000E+000   1.00000000000000             
  0.000000000000000E+000                                                        
  6.959000000000000E-002  0.000000000000000E+000  0.000000000000000E+000        
  0.000000000000000E+000  0.000000000000000E+000  0.000000000000000E+000        
  0.000000000000000E+000  0.000000000000000E+000  0.000000000000000E+000        
   1.00000000000000                                                             
   10    8                                                                      
   63.4200000000000       6.044000000000000E-003  0.000000000000000E+000        
  0.000000000000000E+000  0.000000000000000E+000  0.000000000000000E+000        
  0.000000000000000E+000  0.000000000000000E+000  0.000000000000000E+000        
   14.6600000000000       4.179900000000000E-002  0.000000000000000E+000        
  0.000000000000000E+000  0.000000000000000E+000  0.000000000000000E+000        
  0.000000000000000E+000  0.000000000000000E+000  0.000000000000000E+000        
   4.45900000000000       0.161143000000000       0.000000000000000E+000        
  0.000000000000000E+000  0.000000000000000E+000  0.000000000000000E+000        
  0.000000000000000E+000  0.000000000000000E+000  0.000000000000000E+000        
   1.53100000000000       0.356731000000000        1.00000000000000             
  0.000000000000000E+000  0.000000000000000E+000  0.000000000000000E+000        
  0.000000000000000E+000  0.000000000000000E+000  0.000000000000000E+000        
  0.530200000000000       0.448309000000000       0.000000000000000E+000        
   1.00000000000000       0.000000000000000E+000  0.000000000000000E+000        
  0.000000000000000E+000  0.000000000000000E+000  0.000000000000000E+000        
  0.175000000000000       0.244940000000000       0.000000000000000E+000        
  0.000000000000000E+000   1.00000000000000       0.000000000000000E+000        
  0.000000000000000E+000  0.000000000000000E+000  0.000000000000000E+000        
   14.4750000000000       0.000000000000000E+000  0.000000000000000E+000        
  0.000000000000000E+000  0.000000000000000E+000   1.00000000000000             
  0.000000000000000E+000  0.000000000000000E+000  0.000000000000000E+000        
   42.7300000000000       0.000000000000000E+000  0.000000000000000E+000        
  0.000000000000000E+000  0.000000000000000E+000  0.000000000000000E+000        
   1.00000000000000       0.000000000000000E+000  0.000000000000000E+000        
   126.140000000000       0.000000000000000E+000  0.000000000000000E+000        
  0.000000000000000E+000  0.000000000000000E+000  0.000000000000000E+000        
  0.000000000000000E+000   1.00000000000000       0.000000000000000E+000        
  5.348000000000000E-002  0.000000000000000E+000  0.000000000000000E+000        
  0.000000000000000E+000  0.000000000000000E+000  0.000000000000000E+000        
  0.000000000000000E+000  0.000000000000000E+000   1.00000000000000             
    6    6                                                                      
   3.77500000000000        1.00000000000000       0.000000000000000E+000        
  0.000000000000000E+000  0.000000000000000E+000  0.000000000000000E+000        
  0.000000000000000E+000                                                        
   1.30000000000000       0.000000000000000E+000   1.00000000000000             
  0.000000000000000E+000  0.000000000000000E+000  0.000000000000000E+000        
  0.000000000000000E+000                                                        
  0.444000000000000       0.000000000000000E+000  0.000000000000000E+000        
   1.00000000000000       0.000000000000000E+000  0.000000000000000E+000        
  0.000000000000000E+000                                                        
   14.9270000000000       0.000000000000000E+000  0.000000000000000E+000        
  0.000000000000000E+000   1.00000000000000       0.000000000000000E+000        
  0.000000000000000E+000                                                        
   57.5440000000000       0.000000000000000E+000  0.000000000000000E+000        
  0.000000000000000E+000  0.000000000000000E+000   1.00000000000000             
  0.000000000000000E+000                                                        
  0.154000000000000       0.000000000000000E+000  0.000000000000000E+000        
  0.000000000000000E+000  0.000000000000000E+000  0.000000000000000E+000        
   1.00000000000000                                                             
    4    4                                                                      
   2.66600000000000        1.00000000000000       0.000000000000000E+000        
  0.000000000000000E+000  0.000000000000000E+000                                
  0.859000000000000       0.000000000000000E+000   1.00000000000000             
  0.000000000000000E+000  0.000000000000000E+000                                
   26.4830000000000       0.000000000000000E+000  0.000000000000000E+000        
   1.00000000000000       0.000000000000000E+000                                
  0.324000000000000       0.000000000000000E+000  0.000000000000000E+000        
  0.000000000000000E+000   1.00000000000000                                     
    2    2                                                                      
   1.84600000000000        1.00000000000000       0.000000000000000E+000        
  0.714000000000000       0.000000000000000E+000   1.00000000000000             
FINISH                                                                          
 
********************************************************************************
 ONE- AND TWO-ELECTRON INTEGRALS OVER SYMMETRY-ADAPTED AOS ARE CALCULATED.

  SPHERICAL HARMONICS ARE USED.
  
  INTEGRALS LESS THAN  0.10E-13 ARE NEGLECTED.

  NUCLEAR REPULSION ENERGY :   24.8018357980 A.U.
  @MOLECU-I, ONE ELECTRON INTEGRALS (CPU/WALL):        0.06/       0.06 SECONDS.
  @TWOEL-I,    4650240 INTEGRALS OF SYMMETRY TYPE  I I I I
  @TWOEL-I,   19908560 INTEGRALS OF SYMMETRY TYPE  I J I J
  @TWOEL-I,   10499448 INTEGRALS OF SYMMETRY TYPE  I I J J
  @TWOEL-I,   14717049 INTEGRALS OF SYMMETRY TYPE  I J K L
  @TWOEL-I, TOTAL NUMBER OF 2-E INTEGRALS   49775297.
  @MOLECU-I, TWO ELECTRON INTEGRALS (CPU/WALL):      266.92/      36.17 SECONDS.
 @CHECKOUT-I, Total execution time (CPU/WALL):      267.01/      36.27 seconds.

Running with 14 threads/proc

--executable xvmol finished with status     0 in       36.32 seconds (walltime).
 --invoking executable--
/nfs/workspaces/public/cfour_mpi/bin/xvmol2ja
 @GETMEM-I,  Allocated    3814 MB of main memory.
 @CHECKOUT-I, Total execution time (CPU/WALL):        0.28/       0.09 seconds.
--executable xvmol2ja finished with status     0 in        0.15 seconds (walltime).
 --invoking executable--
/nfs/workspaces/public/cfour_mpi/bin/xvprop
 @GETMEM-I,  Allocated    3814 MB of main memory.
   Property integrals will be calculated.
    --------------------------------------------------------------
                                   Property evaluated at 
    Property type                X             Y             Z
    --------------------------------------------------------------
    Dipole moment               ----          ----          ----  
    Quadrupole moment           ----          ----          ----  
    Octopole moment             ----          ----          ----  
    Relativisitic corr.         ----          ----          ----  
    Second moment            0.0000000     0.0000000     0.0000000
    Electron density         0.0000000     0.0000000     1.1611827
    Electron density         0.0000000     0.0000000    -0.7741579
    Field gradient           0.0000000     0.0000000     1.1611827
    Field gradient           0.0000000     0.0000000    -0.7741579
    Potential                0.0000000     0.0000000     1.1611827
    Potential                0.0000000     0.0000000    -0.7741579
    --------------------------------------------------------------
 @CHECKOUT-I, Total execution time (CPU/WALL):        1.33/       1.38 seconds.
--executable xvprop finished with status     0 in        1.41 seconds (walltime).
 --invoking executable--
/nfs/workspaces/public/cfour_mpi/bin/xvscf
  There are  218 functions in the AO basis.

  There are 4 irreducible representations.

       Irrep        # of functions
         1                 86
         2                 52
         3                 52
         4                 28


  Parameters for SCF calculation: 
        SCF reference function:  RHF  
  Maximum number of iterations:  150
     Full symmetry point group: CXv 
     Computational point group: C2v 
        Initial density matrix: MOREAD                 
     SCF convergence tolerance: 10**(-10)
  DIIS convergence acceleration:  ON
          Latest start for DIIS:   8
                     DIIS order:   6

  Memory information:    2523578 words required.
  Fock matrices are constructed from AO integral file.
 @GETMEM-I,  Allocated      19 MB of main memory.
  Initialization and symmetry analysis required      0.002 seconds.

  Adding electric field perturbation to one-electron Hamiltonian.
  Field direction     : Z
  Field strength      : -0.0002000 a.u.

  @INITGES-I, Occupancies from core Hamiltonian:

          Alpha population by irrep:   5    1    1    0
           Beta population by irrep:   5    1    1    0


 total no. of electrons in initial guess :  0.000000000000000E+000
  --------------------------------------------------------------------
  Iteration         Total Energy            Largest Density Difference
  --------------------------------------------------------------------
       0            24.801990564555826              0.0000000000D+00
   current occupation vector 
     5  1  1  0
     5  1  1  0
       1           -90.840838322729283              0.1953638983D+02
   current occupation vector 
     5  1  1  0
     5  1  1  0
       2           -93.728236334155440              0.8208128397D+02
   current occupation vector 
     5  1  1  0
     5  1  1  0
       3          -103.247023908696022              0.8206343936D+02
   current occupation vector 
     5  1  1  0
     5  1  1  0
       4          -100.706387932145688              0.1201006605D+02
   current occupation vector 
     5  1  1  0
     5  1  1  0
       5          -105.111065643015522              0.1203218656D+02
   current occupation vector 
     5  1  1  0
     5  1  1  0
       6          -102.426903133625146              0.6593726779D+01
   current occupation vector 
     5  1  1  0
     5  1  1  0
       7          -104.244545857183866              0.6589878045D+01
   current occupation vector 
     5  1  1  0
     5  1  1  0
       8          -101.615102769510671              0.5301483670D+01
   current occupation vector 
     5  1  1  0
     5  1  1  0
       9          -111.481392266160199              0.3593675923D+01
   current occupation vector 
     5  1  1  0
     5  1  1  0
      10          -112.559397634937724              0.8847520394D+00
   current occupation vector 
     5  1  1  0
     5  1  1  0
      11          -112.768597451657783              0.3900103399D+00
   current occupation vector 
     5  1  1  0
     5  1  1  0
      12          -112.771201710650999              0.4761565434D-01
   current occupation vector 
     5  1  1  0
     5  1  1  0
      13          -112.771311495424882              0.1511448640D-01
   current occupation vector 
     5  1  1  0
     5  1  1  0
      14          -112.771321313241188              0.5156100282D-02
   current occupation vector 
     5  1  1  0
     5  1  1  0
      15          -112.771321475452496              0.4293772915D-03
   current occupation vector 
     5  1  1  0
     5  1  1  0
      16          -112.771321478318654              0.5077601710D-04
   current occupation vector 
     5  1  1  0
     5  1  1  0
      17          -112.771321478437315              0.1959457557D-04
   current occupation vector 
     5  1  1  0
     5  1  1  0
      18          -112.771321478443738              0.1660450531D-05
   current occupation vector 
     5  1  1  0
     5  1  1  0
      19          -112.771321478445103              0.6546455011D-06
   current occupation vector 
     5  1  1  0
     5  1  1  0
      20          -112.771321478445444              0.4372066323D-07
   current occupation vector 
     5  1  1  0
     5  1  1  0
      21          -112.771321478445529              0.1921164194D-07
   current occupation vector 
     5  1  1  0
     5  1  1  0
      22          -112.771321478445415              0.8458467926D-08
   current occupation vector 
     5  1  1  0
     5  1  1  0
      23          -112.771321478445472              0.7003857494D-09
   current occupation vector 
     5  1  1  0
     5  1  1  0
      24          -112.771321478445245              0.1596709431D-09
   current occupation vector 
     5  1  1  0
     5  1  1  0
      25          -112.771321478445387              0.2931771319D-09
   current occupation vector 
     5  1  1  0
     5  1  1  0
      26          -112.771321478445046              0.4000561861D-09
   current occupation vector 
     5  1  1  0
     5  1  1  0

  SCF has converged.

 Density matrix saved to file den.dat
 total electron number:   14.0000000000000     
     E(SCF)=      -112.771321478444392              0.4184292843D-10

  Eigenvector printing suppressed.

 @PUTMOS-I, Writing converged MOs to NEWMOS. 
 @PUTMOS-I, Symmetry   1 Full Blocks 21 Partial Blocksize   2
 @PUTMOS-I, Symmetry   2 Full Blocks 13 Partial Blocksize   0
 @PUTMOS-I, Symmetry   3 Full Blocks 13 Partial Blocksize   0
 @PUTMOS-I, Symmetry   4 Full Blocks  7 Partial Blocksize   0
 @PUTFOCK-I, Writing converged Fock matrix to NEWFOCK. 
 @PUTFOCK-I, Symmetry   1 Full Blocks 21 Partial Blocksize   2
 @PUTFOCK-I, Symmetry   2 Full Blocks 13 Partial Blocksize   0
 @PUTFOCK-I, Symmetry   3 Full Blocks 13 Partial Blocksize   0
 @PUTFOCK-I, Symmetry   4 Full Blocks  7 Partial Blocksize   0


 
  ORBITAL EIGENVALUES (ALPHA)  (1H = 27.2113834 eV)

       MO #        E(hartree)               E(eV)           FULLSYM    COMPSYM
       ----   --------------------   --------------------   -------   ---------
    1     1         -20.6588038070        -562.1546309771     SG+        A1 (1)
    2     2         -11.3125187529        -307.8292850042     SG+        A1 (1)
    3     3          -1.5957706546         -43.4231271006     SG+        A1 (1)
    4     4          -0.8138844113         -22.1469207602     SG+        A1 (1)
    5    87          -0.6899627788         -18.7748417047      PI        B1 (2)
    6   139          -0.6899627788         -18.7748417047      PI        B2 (3)
    7     5          -0.5409187508         -14.7191475150     SG+        A1 (1)
  +++++++++++++++++++++++++++++++++++++++++++++++++++++++++++++++++++++++++++++
    8     6           0.0586738157           1.5965956942     SG+        A1 (1)
    9    88           0.0642588718           1.7485727963      PI        B1 (2)
   10   140           0.0642588718           1.7485727963      PI        B2 (3)
   11     7           0.0752652062           2.0480703814     SG+        A1 (1)
   12    89           0.1545677399           4.2060020303      PI        B1 (2)
   13   141           0.1545677399           4.2060020303      PI        B2 (3)
   14     8           0.1565090674           4.2588282379     SG+        A1 (1)
   15    90           0.1825189380           4.9665927984      PI        B1 (2)
   16   142           0.1825189380           4.9665927984      PI        B2 (3)
   17     9           0.2273646216           6.1869058899     SG+        A1 (1)
   18    10           0.2275265125           6.1913111650      DE        A1 (1)
   19   191           0.2275265125           6.1913111650      DE        A2 (4)
   20    11           0.3017872635           8.2120489319     SG+        A1 (1)
   21   143           0.3329404139           9.0597692523      PI        B2 (3)
   22    91           0.3329404139           9.0597692523      PI        B1 (2)
   23    12           0.3951655717          10.7530018776     SG+        A1 (1)
   24   144           0.3999264094          10.8825508583      PI        B2 (3)
   25    92           0.3999264094          10.8825508583      PI        B1 (2)
   26    13           0.5082176019          13.8293040168     SG+        A1 (1)
   27    14           0.5269864256          14.3400296746      DE        A1 (1)
   28   192           0.5269864256          14.3400296746      DE        A2 (4)
   29    93           0.6198253275          16.8663046264      PI        B1 (2)
   30   145           0.6198253275          16.8663046264      PI        B2 (3)
   31    15           0.6613730375          17.9968752943     SG+        A1 (1)
   32   146           0.7499250215          20.4064972801      PH        B2 (3)
   33    94           0.7499250215          20.4064972801      PH        B1 (2)
   34   193           0.7704749742          20.9656899242      DE        A2 (4)
   35    16           0.7704749742          20.9656899242      DE        A1 (1)
   36    17           0.7858297000          21.3835132527     SG+        A1 (1)
   37   147           0.8365805938          22.7645152826      PI        B2 (3)
   38    95           0.8365805938          22.7645152826      PI        B1 (2)
   39   148           0.8740636387          23.7844807891      PI        B2 (3)
   40    96           0.8740636387          23.7844807891      PI        B1 (2)
   41    18           0.8761379640          23.8409260484     SG+        A1 (1)
   42    19           0.8991279423          24.4665151641      DE        A1 (1)
   43   194           0.8991279423          24.4665151642      DE        A2 (4)
   44    20           0.9487457398          25.8166840757     SG+        A1 (1)
   45   149           1.1034196221          30.0255743874      PI        B2 (3)
   46    97           1.1034196221          30.0255743874      PI        B1 (2)
   47    21           1.2908838304          35.1267348338     SG+        A1 (1)
   48    98           1.4548557590          39.5886378493      PH        B1 (2)
   49   150           1.4548557590          39.5886378493      PH        B2 (3)
   50   195           1.5036189010          40.9155504039      DE        A2 (4)
   51    22           1.5036189010          40.9155504039      DE        A1 (1)
   52    23           1.5292130684          41.6120031050     SG+        A1 (1)
   53   151           1.5369048926          41.8213082811      PI        B2 (3)
   54    99           1.5369048926          41.8213082811      PI        B1 (2)
   55    24           1.6570787585          45.0914054221     SG+        A1 (1)
   56    25           1.7527279397          47.6941519617     SG+        A1 (1)
   57   196           1.7764179555          48.3387900662      DE        A2 (4)
   58    26           1.7764179555          48.3387900663      DE        A1 (1)
   59   152           1.8692457372          50.8647624234      PI        B2 (3)
   60   100           1.8692457372          50.8647624235      PI        B1 (2)
   61   153           1.9514601317          53.1019298343      PI        B2 (3)
   62   101           1.9514601317          53.1019298344      PI        B1 (2)
   63   197           2.1118385896          57.4660495399      PI        A2 (4)
   64    27           2.1118385896          57.4660495399      PI        A1 (1)
   65    28           2.1976691126          59.8016168100     SG+        A1 (1)
   66   198           2.2195835209          60.3979381758      DE        A2 (4)
   67    29           2.2195835209          60.3979381758      DE        A1 (1)
   68   154           2.2595910401          61.4865981194      PH        B2 (3)
   69   102           2.2595910401          61.4865981194      PH        B1 (2)
   70    30           2.3302292938          63.4087627246     SG+        A1 (1)
   71   155           2.3444653625          63.7961458467      PI        B2 (3)
   72   103           2.3444653625          63.7961458467      PI        B1 (2)
   73    31           2.3795708557          64.7514148816      DE        A1 (1)
   74   199           2.3795708557          64.7514148816      DE        A2 (4)
   75   156           2.4028073569          65.3837122261      PH        B2 (3)
   76   104           2.4028073569          65.3837122261      PH        B1 (2)
   77    32           2.5364036548          69.0190523072     SG+        A1 (1)
   78   157           2.6101074167          71.0246336305      PI        B2 (3)
   79   105           2.6101074167          71.0246336306      PI        B1 (2)
   80   158           2.9449977024          80.1374615930      PI        B2 (3)
   81   106           2.9449977024          80.1374615930      PI        B1 (2)
   82    33           3.0818616196          83.8617181159     SG+        A1 (1)
   83   200           3.0937040777          84.1839677834      DE        A2 (4)
   84    34           3.0937040777          84.1839677837      DE        A1 (1)
   85    35           3.4205937256          93.0790873224     SG+        A1 (1)
   86   201           3.7481283311         101.9917570506      PI        A2 (4)
   87    36           3.7481283311         101.9917570506      PI        A1 (1)
   88   159           3.7614589347         102.3545012158      PI        B2 (3)
   89   107           3.7614589347         102.3545012160      PI        B1 (2)
   90    37           3.9813076621         108.3368892262     SG+        A1 (1)
   91   160           4.0715330628         110.7920471987      PH        B2 (3)
   92   108           4.0715330628         110.7920471987      PH        B1 (2)
   93   202           4.1777341028         113.6819244134      DE        A2 (4)
   94    38           4.1777341028         113.6819244134      DE        A1 (1)
   95   161           4.2103850940         114.5704030537      PI        B2 (3)
   96   109           4.2103850940         114.5704030537      PI        B1 (2)
   97    39           4.3094135493         117.2651043185     SG+        A1 (1)
   98   162           4.4063062896         119.9016898242      PH        B2 (3)
   99   110           4.4063062896         119.9016898243      PH        B1 (2)
  100   203           4.4279859071         120.4916222076      DE        A2 (4)
  101    40           4.4279859071         120.4916222076      DE        A1 (1)
  102    41           4.6728135464         127.1537209670     SG+        A1 (1)
  103   163           4.8130745261         130.9704162616      PI        B2 (3)
  104   111           4.8130745261         130.9704162617      PI        B1 (2)
  105    42           4.9863311460         135.6849685734     SG+        A1 (1)
  106   204           5.1940352143         141.3368836088      DE        A2 (4)
  107    43           5.1940352143         141.3368836091      DE        A1 (1)
  108   164           5.2700788908         143.4061372455      PI        B2 (3)
  109   112           5.2700788908         143.4061372456      PI        B1 (2)
  110   205           5.9168712567         161.0062522939      PI        A2 (4)
  111    44           5.9168712567         161.0062522939      PI        A1 (1)
  112   165           5.9318632901         161.4142062643      PI        B2 (3)
  113   113           5.9318632901         161.4142062643      PI        B1 (2)
  114    45           6.1682681439         167.8471093773     SG+        A1 (1)
  115    46           6.2286898886         169.4912686376     SG+        A1 (1)
  116   114           6.2465814980         169.9781240817      PH        B1 (2)
  117   166           6.2465814980         169.9781240817      PH        B2 (3)
  118    47           6.3287492659         172.2140227164      DE        A1 (1)
  119   206           6.3287492659         172.2140227164      DE        A2 (4)
  120   167           6.3645408241         173.1879605283      PI        B2 (3)
  121   115           6.3645408241         173.1879605283      PI        B1 (2)
  122   116           6.4739488240         176.1651035630      PH        B1 (2)
  123   168           6.4739488240         176.1651035630      PH        B2 (3)
  124    48           6.6733461671         181.5909811130      DE        A1 (1)
  125   207           6.6733461671         181.5909811130      DE        A2 (4)
  126    49           7.1354847227         194.1664105333     SG+        A1 (1)
  127   169           7.7632014324         211.2474505882      PI        B2 (3)
  128   117           7.7632014324         211.2474505883      PI        B1 (2)
  129   208           7.7874085338         211.9061593067      DE        A2 (4)
  130    50           7.7874085338         211.9061593068      DE        A1 (1)
  131    51           8.1495694133         221.7610578503     SG+        A1 (1)
  132    52           8.6494500046         235.3635002747     SG+        A1 (1)
  133   170           8.7993716760         239.4430763538      PI        B2 (3)
  134   118           8.7993716760         239.4430763541      PI        B1 (2)
  135    53          10.0359574471         273.0922858781     SG+        A1 (1)
  136   119          10.1347757712         275.7812691827      PI        B1 (2)
  137   171          10.1347757712         275.7812691828      PI        B2 (3)
  138    54          10.6012965099         288.4759438691      PI        A1 (1)
  139   209          10.6012965099         288.4759438691      PI        A2 (4)
  140   172          10.9718177938         298.5583405829      PH        B2 (3)
  141   120          10.9718177938         298.5583405829      PH        B1 (2)
  142   210          11.2570348492         306.3194912290      DE        A2 (4)
  143    55          11.2570348492         306.3194912291      DE        A1 (1)
  144    56          11.2969014306         307.4043160592     SG+        A1 (1)
  145   173          11.4214924962         310.7946113156      PI        B2 (3)
  146   121          11.4214924962         310.7946113156      PI        B1 (2)
  147   122          11.8610757272         322.7562791495      PH        B1 (2)
  148   174          11.8610757272         322.7562791495      PH        B2 (3)
  149    57          12.3110162698         334.9997837606     SG+        A1 (1)
  150    58          12.3994453457         337.4060612493      DE        A1 (1)
  151   211          12.3994453457         337.4060612493      DE        A2 (4)
  152   123          12.9287417371         351.8089482871      PI        B1 (2)
  153   175          12.9287417371         351.8089482871      PI        B2 (3)
  154   212          12.9940535219         353.5861723054      DE        A2 (4)
  155    59          12.9940535219         353.5861723054      DE        A1 (1)
  156    60          13.8182525167         376.0137671488     SG+        A1 (1)
  157   176          14.7825875021         402.2546561636      PI        B2 (3)
  158   124          14.7825875021         402.2546561638      PI        B1 (2)
  159    61          15.7974166290         429.8695606215     SG+        A1 (1)
  160    62          18.4184760296         501.1922128859     SG+        A1 (1)
  161   125          19.5920021255         533.1254814115      PI        B1 (2)
  162   177          19.5920021255         533.1254814119      PI        B2 (3)
  163    63          21.1602907411         575.8007842117     SG+        A1 (1)
  164    64          26.6629418192         725.5355324136      DE        A1 (1)
  165   213          26.6629418192         725.5355324137      DE        A2 (4)
  166   178          27.4045949251         745.7169394273      PI        B2 (3)
  167   126          27.4045949251         745.7169394273      PI        B1 (2)
  168    65          28.6774929615         780.3542559261     SG+        A1 (1)
  169   127          33.8805856393         921.9376056468      PI        B1 (2)
  170   179          33.8805856393         921.9376056471      PI        B2 (3)
  171    66          35.5321657027         966.8793839697     SG+        A1 (1)
  172    67          37.3221860081        1015.5883127916     SG+        A1 (1)
  173   214          47.1672502481        1283.4861304238      DE        A2 (4)
  174    68          47.1672502481        1283.4861304239      DE        A1 (1)
  175   180          48.0231042547        1306.7751019326      PI        B2 (3)
  176   128          48.0231042547        1306.7751019327      PI        B1 (2)
  177    69          48.7531209410        1326.6398658730     SG+        A1 (1)
  178    70          64.5620732957        1756.8233295493     SG+        A1 (1)
  179   129          67.0223085555        1823.7697344563      PI        B1 (2)
  180   181          67.0223085555        1823.7697344568      PI        B2 (3)
  181    71          68.1857347340        1855.4281702579     SG+        A1 (1)
  182   130          98.7310593697        2686.6087099971      PH        B1 (2)
  183   182          98.7310593697        2686.6087099971      PH        B2 (3)
  184   215          98.7672263427        2687.5928633669      DE        A2 (4)
  185    72          98.7672263427        2687.5928633669      DE        A1 (1)
  186   183          98.8413480383        2689.6098172440      PI        B2 (3)
  187   131          98.8413480383        2689.6098172440      PI        B1 (2)
  188    73          98.8669986622        2690.3078062057     SG+        A1 (1)
  189   132         103.2922212314        2810.7242341655      PH        B1 (2)
  190   184         103.2922212314        2810.7242341655      PH        B2 (3)
  191   216         103.3563058793        2812.4680660883      DE        A2 (4)
  192    74         103.3563058793        2812.4680660890      DE        A1 (1)
  193   185         103.4022304689        2813.7177377033      PI        B2 (3)
  194   133         103.4022304689        2813.7177377033      PI        B1 (2)
  195    75         103.4917182389        2816.1528237244     SG+        A1 (1)
  196   217         115.2842299183        3137.0433802816      DE        A2 (4)
  197    76         115.2842299183        3137.0433802817      DE        A1 (1)
  198   186         115.6444352018        3146.8450643527      PI        B2 (3)
  199   134         115.6444352018        3146.8450643527      PI        B1 (2)
  200    77         116.1972408190        3161.8876699487     SG+        A1 (1)
  201   135         117.1178611091        3186.9390216270      PI        B1 (2)
  202   187         117.1178611091        3186.9390216272      PI        B2 (3)
  203    78         118.6999335838        3229.9894023041     SG+        A1 (1)
  204    79         123.2102147193        3352.7203915238     SG+        A1 (1)
  205   218         198.6119020956        5404.5046157258      DE        A2 (4)
  206    80         198.6119020956        5404.5046157259      DE        A1 (1)
  207   188         199.0818223108        5417.2917948700      PI        B2 (3)
  208   136         199.0818223108        5417.2917948700      PI        B1 (2)
  209    81         199.4739306359        5427.9616048397     SG+        A1 (1)
  210    82         217.0025701760        5904.9401358449     SG+        A1 (1)
  211   137         225.4204379481        6134.0019632017      PI        B1 (2)
  212   189         225.4204379481        6134.0019632021      PI        B2 (3)
  213    83         226.3615711651        6159.6114999987     SG+        A1 (1)
  214   138         395.5630095399       10763.8167114493      PI        B1 (2)
  215   190         395.5630095400       10763.8167114498      PI        B2 (3)
  216    84         396.7422184810       10795.9046180541     SG+        A1 (1)
  217    85         509.6596987930       13868.5454673861     SG+        A1 (1)
  218    86         895.8484958163       24377.2768879710     SG+        A1 (1)


  VSCF finished.

 @CHECKOUT-I, Total execution time (CPU/WALL):       47.85/      10.40 seconds.
--executable xvscf finished with status     0 in       10.43 seconds (walltime).
 --invoking executable--
/nfs/workspaces/public/cfour_mpi/bin/xvtran
 @GETMEM-I,  Allocated    3814 MB of main memory.
  Full RHF integral transformation
  Transformation of IIII integrals :
  1 pass through the AO integral file was required.
     4650240 AO integrals were read.
     8852134 MO integrals were written to HF2.
  Transformation of IIJJ integrals :
  1 pass through the AO integral file was required.
    10499448 AO integrals were read.
    14667018 MO integrals were written to HF2.
  Transformation of IJIJ integrals :
  1 pass through the AO integral file was required.
    19908560 AO integrals were read.
    27633621 MO integrals were written to HF2.
  Transformation of IJKL integrals :
  1 pass through the AO integral file was required.
    14717049 AO integrals were read.
    18671883 MO integrals were written to HF2.
  Summary of active molecular orbitals: 
------------------------------------------------------------------------
 
  Index      Eigenvalue    Symmetry    Index      Eigenvalue    Symmetry
------------------------------------------------------------------------
     1       -20.6588038        1       110         4.2103851        2
     2       -11.3125188        1       111         4.4063063        2
     3        -1.5957707        1       112         4.8130745        2
     4        -0.8138844        1       113         5.2700789        2
     5        -0.5409188        1       114         5.9318633        2
     6        -0.6899628        2       115         6.2465815        2
     7        -0.6899628        3       116         6.3645408        2
     8         0.0586738        1       117         6.4739488        2
     9         0.0752652        1       118         7.7632014        2
    10         0.1565091        1       119         8.7993717        2
    11         0.2273646        1       120        10.1347758        2
    12         0.2275265        1       121        10.9718178        2
    13         0.3017873        1       122        11.4214925        2
    14         0.3951656        1       123        11.8610757        2
    15         0.5082176        1       124        12.9287417        2
    16         0.5269864        1       125        14.7825875        2
    17         0.6613730        1       126        19.5920021        2
    18         0.7704750        1       127        27.4045949        2
    19         0.7858297        1       128        33.8805856        2
    20         0.8761380        1       129        48.0231043        2
    21         0.8991279        1       130        67.0223086        2
    22         0.9487457        1       131        98.7310594        2
    23         1.2908838        1       132        98.8413480        2
    24         1.5036189        1       133       103.2922212        2
    25         1.5292131        1       134       103.4022305        2
    26         1.6570788        1       135       115.6444352        2
    27         1.7527279        1       136       117.1178611        2
    28         1.7764180        1       137       199.0818223        2
    29         2.1118386        1       138       225.4204379        2
    30         2.1976691        1       139       395.5630095        2
    31         2.2195835        1       140         0.0642589        3
    32         2.3302293        1       141         0.1545677        3
    33         2.3795709        1       142         0.1825189        3
    34         2.5364037        1       143         0.3329404        3
    35         3.0818616        1       144         0.3999264        3
    36         3.0937041        1       145         0.6198253        3
    37         3.4205937        1       146         0.7499250        3
    38         3.7481283        1       147         0.8365806        3
    39         3.9813077        1       148         0.8740636        3
    40         4.1777341        1       149         1.1034196        3
    41         4.3094135        1       150         1.4548558        3
    42         4.4279859        1       151         1.5369049        3
    43         4.6728135        1       152         1.8692457        3
    44         4.9863311        1       153         1.9514601        3
    45         5.1940352        1       154         2.2595910        3
    46         5.9168713        1       155         2.3444654        3
    47         6.1682681        1       156         2.4028074        3
    48         6.2286899        1       157         2.6101074        3
    49         6.3287493        1       158         2.9449977        3
    50         6.6733462        1       159         3.7614589        3
    51         7.1354847        1       160         4.0715331        3
    52         7.7874085        1       161         4.2103851        3
    53         8.1495694        1       162         4.4063063        3
    54         8.6494500        1       163         4.8130745        3
    55        10.0359574        1       164         5.2700789        3
    56        10.6012965        1       165         5.9318633        3
    57        11.2570348        1       166         6.2465815        3
    58        11.2969014        1       167         6.3645408        3
    59        12.3110163        1       168         6.4739488        3
    60        12.3994453        1       169         7.7632014        3
    61        12.9940535        1       170         8.7993717        3
    62        13.8182525        1       171        10.1347758        3
    63        15.7974166        1       172        10.9718178        3
    64        18.4184760        1       173        11.4214925        3
    65        21.1602907        1       174        11.8610757        3
    66        26.6629418        1       175        12.9287417        3
    67        28.6774930        1       176        14.7825875        3
    68        35.5321657        1       177        19.5920021        3
    69        37.3221860        1       178        27.4045949        3
    70        47.1672502        1       179        33.8805856        3
    71        48.7531209        1       180        48.0231043        3
    72        64.5620733        1       181        67.0223086        3
    73        68.1857347        1       182        98.7310594        3
    74        98.7672263        1       183        98.8413480        3
    75        98.8669987        1       184       103.2922212        3
    76       103.3563059        1       185       103.4022305        3
    77       103.4917182        1       186       115.6444352        3
    78       115.2842299        1       187       117.1178611        3
    79       116.1972408        1       188       199.0818223        3
    80       118.6999336        1       189       225.4204379        3
    81       123.2102147        1       190       395.5630095        3
    82       198.6119021        1       191         0.2275265        4
    83       199.4739306        1       192         0.5269864        4
    84       217.0025702        1       193         0.7704750        4
    85       226.3615712        1       194         0.8991279        4
    86       396.7422185        1       195         1.5036189        4
    87       509.6596988        1       196         1.7764180        4
    88       895.8484958        1       197         2.1118386        4
    89         0.0642589        2       198         2.2195835        4
    90         0.1545677        2       199         2.3795709        4
    91         0.1825189        2       200         3.0937041        4
    92         0.3329404        2       201         3.7481283        4
    93         0.3999264        2       202         4.1777341        4
    94         0.6198253        2       203         4.4279859        4
    95         0.7499250        2       204         5.1940352        4
    96         0.8365806        2       205         5.9168713        4
    97         0.8740636        2       206         6.3287493        4
    98         1.1034196        2       207         6.6733462        4
    99         1.4548558        2       208         7.7874085        4
   100         1.5369049        2       209        10.6012965        4
   101         1.8692457        2       210        11.2570348        4
   102         1.9514601        2       211        12.3994453        4
   103         2.2595910        2       212        12.9940535        4
   104         2.3444654        2       213        26.6629418        4
   105         2.4028074        2       214        47.1672502        4
   106         2.6101074        2       215        98.7672263        4
   107         2.9449977        2       216       103.3563059        4
   108         3.7614589        2       217       115.2842299        4
   109         4.0715331        2       218       198.6119021        4
------------------------------------------------------------------------
  -20.6588038069801       -11.3125187528764       -1.59577065459174     
 -0.813884411337855      -0.540918750751856      -0.689962778763162     
 -0.689962778763152       5.867381568717881E-002  7.526520615487478E-002
  0.156509067374920       0.227364621596302       0.227526512489588     
  0.301787263484345       0.395165571684965       0.508217601932278     
  0.526986425636745       0.661373037516193       0.770474974241245     
  0.785829699959513       0.876137963953967       0.899127942320790     
  0.948745739833987        1.29088383039588        1.50361890104787     
   1.52921306841604        1.65707875851971        1.75272793965044     
   1.77641795551921        2.11183858957824        2.19766911262465     
   2.21958352091144        2.33022929383889        2.37957085568716     
   2.53640365477359        3.08186161957153        3.09370407767130     
   3.42059372558213        3.74812833112301        3.98130766208054     
   4.17773410275956        4.30941354927458        4.42798590708825     
   4.67281354637068        4.98633114600756        5.19403521428942     
   5.91687125667637        6.16826814388730        6.22868988857215     
   6.32874926588178        6.67334616706756        7.13548472266410     
   7.78740853384277        8.14956941330372        8.64945000461610     
   10.0359574470616        10.6012965099397        11.2570348492120     
   11.2969014305686        12.3110162697791        12.3994453457035     
   12.9940535219310        13.8182525166564        15.7974166290077     
   18.4184760296277        21.1602907411072        26.6629418191788     
   28.6774929614958        35.5321657027455        37.3221860080645     
[...]
 Convergence information after     8 iterations: 
 Largest element of residual vector : -0.19986557E-04.
 Largest element of DIIS residual   :  0.14807390E-04.
 Convergence information after     9 iterations: 
 Largest element of residual vector :  0.69187746E-05.
 Largest element of DIIS residual   :  0.35506728E-05.
 Convergence information after    10 iterations: 
 Largest element of residual vector :  0.28810638E-05.
 Largest element of DIIS residual   :  0.17839653E-05.
 Convergence information after    11 iterations: 
 Largest element of residual vector :  0.89808045E-06.
 Largest element of DIIS residual   :  0.45905516E-06.
 Convergence information after    12 iterations: 
 Largest element of residual vector :  0.38015664E-06.
 Largest element of DIIS residual   :  0.24000695E-06.
 Convergence information after    13 iterations: 
 Largest element of residual vector :  0.15577230E-06.
 Largest element of DIIS residual   :  0.13967165E-06.
 Convergence information after    14 iterations: 
 Largest element of residual vector :  0.99666664E-07.
 Largest element of DIIS residual   :  0.69685609E-07.
 Perturbed amplitude equations converged in    14 iterations.
  Dominant contributions to perturbed wavefunction:
    7    7  142   37   0.2587876362 ABAB
    7    7   37  142   0.2587876362 ABAB
    7    7  142   27   0.2187146820 ABAB
    7    7   27  142   0.2187146820 ABAB
    7    7  142   63   0.2047123540 ABAB
    7    7   63  142   0.2047123540 ABAB
    7    7  142   55   0.1888214055 ABAB
    7    7   55  142   0.1888214055 ABAB
    7    7  142   47   0.1793688240 ABAB
    7    7   47  142   0.1793688240 ABAB
    7    6   37   91   0.1759701152 ABAB
    6    7   91   37   0.1759701152 ABAB
    7    7  142   51  -0.1493359479 ABAB
    7    7   51  142  -0.1493359479 ABAB
    7    6   27   91   0.1481219594 ABAB
    6    7   91   27   0.1481219594 ABAB
    7    7  143   37   0.1460172843 ABAB
    7    7   37  143   0.1460172843 ABAB
    7    7  142   43   0.1408180479 ABAB
    7    7   43  142   0.1408180479 ABAB
  norm of converged amps    2.74565176750003     
 Starting iterative solution of the perturbed Lambda equations.
 The DIIS procedure is used to accelerate convergence.
 Convergence criterion is 10**(-7).
 Maximum number of iterations is 100.
 Convergence information after     1 iterations: 
 Largest element of residual vector : -0.63756367E-01.
 Largest element of DIIS residual   : -0.63756367E-01.
 Convergence information after     2 iterations: 
 Largest element of residual vector :  0.62135771E-02.
 Largest element of DIIS residual   :  0.58192504E-02.
 Convergence information after     3 iterations: 
 Largest element of residual vector : -0.38072174E-02.
 Largest element of DIIS residual   : -0.34039856E-02.
 Convergence information after     4 iterations: 
 Largest element of residual vector : -0.23870952E-02.
 Largest element of DIIS residual   : -0.18159868E-02.
 Convergence information after     5 iterations: 
 Largest element of residual vector : -0.12983784E-02.
 Largest element of DIIS residual   : -0.58707212E-03.
 Convergence information after     6 iterations: 
 Largest element of residual vector : -0.40643029E-03.
 Largest element of DIIS residual   : -0.96717688E-04.
 Convergence information after     7 iterations: 
 Largest element of residual vector : -0.68269215E-04.
 Largest element of DIIS residual   : -0.31281632E-04.
 Convergence information after     8 iterations: 
 Largest element of residual vector : -0.15736403E-04.
 Largest element of DIIS residual   :  0.12571308E-04.
 Convergence information after     9 iterations: 
 Largest element of residual vector :  0.59786344E-05.
 Largest element of DIIS residual   :  0.30734376E-05.
 Convergence information after    10 iterations: 
 Largest element of residual vector :  0.24491388E-05.
 Largest element of DIIS residual   :  0.15406899E-05.
 Convergence information after    11 iterations: 
 Largest element of residual vector :  0.78449447E-06.
 Largest element of DIIS residual   :  0.43468093E-06.
 Convergence information after    12 iterations: 
 Largest element of residual vector :  0.34501780E-06.
 Largest element of DIIS residual   :  0.22479222E-06.
 Convergence information after    13 iterations: 
 Largest element of residual vector :  0.14602487E-06.
 Largest element of DIIS residual   :  0.12921883E-06.
 Convergence information after    14 iterations: 
 Largest element of residual vector :  0.92305785E-07.
 Largest element of DIIS residual   :  0.64225553E-07.
 Perturbed Lambda equations converged in    14 iterations.
  Dominant contributions to perturbed wavefunction:
    7    7  142   37   0.2482794304 ABAB
    7    7   37  142   0.2482794304 ABAB
    7    7  142   27   0.2090676301 ABAB
    7    7   27  142   0.2090676301 ABAB
    7    7  142   63   0.1960890949 ABAB
    7    7   63  142   0.1960890949 ABAB
    7    7  142   55   0.1797098750 ABAB
    7    7   55  142   0.1797098750 ABAB
    7    7  142   47   0.1717539859 ABAB
    7    7   47  142   0.1717539859 ABAB
    7    6   37   91   0.1670339669 ABAB
    6    7   91   37   0.1670339669 ABAB
    7    7  142   51  -0.1433922484 ABAB
    7    7   51  142  -0.1433922484 ABAB
    7    7  143   37   0.1407877204 ABAB
    7    7   37  143   0.1407877204 ABAB
    7    6   27   91   0.1398907658 ABAB
    6    7   91   27   0.1398907658 ABAB
    7    7  142   43   0.1333957198 ABAB
    7    7   43  142   0.1333957198 ABAB
        The DBOC first-order density matrix is being calculated 
             (Symmetry block 3, perturbation   2)
 term   8.95962120722875     
 final tnorm  0.899727800806906     
  norm contr. I: |<0|L dT/dx|0>|^2   0.000000000000000E+000
  norm contr. II: <0|[nabla(1+L)e-T][nabla e^T]|0>   8.95962120722875     
  total norm contribution   8.95962120722875     
 oo  1.195793252172964E-002
 vv  -59.8068852368063     
 vo  2.122573946950608E-002
  Correlated perturbed 1-el contribution to DBOC  -59.7737015648151       cm**-1
  SUM_I |dc_I/dx|^2 contribution to DBOC   29.9735056889856       cm**-1
 
 
  The total diagonal Born-Oppenheimer correction (DBOC) is:      0.0038797397 a.u.
  The total diagonal Born-Oppenheimer correction (DBOC) is:        851.504431 cm-1
 
 Total CC energy including DBOC  -113.253795625442     
 First-order density matrix is being calculated  (Symmetry block 3, perturbation   2)
 Calculation of the contributions of <pq||rs> to dI(i,j)/dx required   3.4 seconds.
 Calculation of the contributions of <pq||rs> to dI(a,b)/dx required  17.7 seconds.
 Calculation of the contributions of <pq||rs> to dI(i,a)/dx required   9.7 seconds.
 First-order Z-vector equations are solved for 1 perturbation.
 Convergence reached after  17 iterations.
        U*G(pq,rs) contribution is being calculated
             (Symmetry block 3, perturbation   2)

 CCSD contribution to force constants 

        0.0000000000        0.0000000000        0.0000000000
        0.0000000000        0.0000000000        0.0000000000
        0.0000000000        0.0000000000        0.0000000000
        0.0000000000        0.0000000000        0.0000000000
        0.0000000000        0.0000000000        0.0000000000
        0.0000000000        0.0000000000        0.0000000000
        0.0000000000        0.0000000000        0.0000000000
        0.0000000000        0.0000000000        0.0000000000
        0.0000000000        0.0000000000        0.0000000000
        0.0000000000        0.0000000000        0.0000000000
        0.0000000000        0.0000000000        0.0000000000
        0.0000000000       -8.7677851896        8.7677851896

 CCSD contribution to dipole derivatives 

        0.0000000000        0.0000000000        0.0000000000
        0.0000000000        0.0000000000        0.0000000000
        0.0000000000        0.0000000000        0.0000000000
        0.0000000000        0.0000000000       -0.0398894980
        0.0000000000        0.0000000000        0.0000000000
        0.0000000000        0.0000000000        0.0000000000
 @CHECKOUT-I, Total execution time (CPU/WALL):     1220.26/     481.98 seconds.
--executable xsdcc finished with status     0 in      482.27 seconds (walltime).
 --invoking executable--
/nfs/workspaces/public/cfour_mpi/bin/xanti
 @GETMEM-I,  Allocated    3814 MB of main memory.
 CCSD MO derivative gammas will be sorted to Mulliken order.
 @CHECKOUT-I, Total execution time (CPU/WALL):       13.83/      32.22 seconds.
--executable xanti finished with status     0 in       32.36 seconds (walltime).
 --invoking executable--
/nfs/workspaces/public/cfour_mpi/bin/xbcktrn
 @GETMEM-I,  Allocated    3814 MB of main memory.
 CCSD MO derivative gammas will be transformed to the AO basis.
 @CHECKOUT-I, Total execution time (CPU/WALL):       33.52/       9.76 seconds.
--executable xbcktrn finished with status     0 in        9.82 seconds (walltime).
 --invoking executable--
/nfs/workspaces/public/cfour_mpi/bin/xvdint
 @GETMEM-I,  Allocated    3814 MB of main memory.
 One- and two-electron integral derivatives are calculated
 for RHF-CC/MBPT hessians and dipole derivatives.
 Spherical gaussians are used.
  magnet F F
                    8722  records have been written to the Sort file.
  Total length of Sort file :             178609116  words.
 Evaluation of 2el integral derivatives

                      Two-electron integral gradient
                      ------------------------------

                         C #1 z     0.0000000000
                         O #2 z     0.0000000000


 C #1       0.0000000000           -1.2122611119            0.0000000000
 O #2       0.0000000000            1.2122611119            0.0000000000


 Evaluation of 2e integral derivatives required  361.47 seconds.
  contribution to Hessian
        0.0000000000        0.0000000000        0.0000000000
        0.0000000000       -1.2122611119        1.2122611119
 @CHECKOUT-I, Total execution time (CPU/WALL):      361.45/      74.72 seconds.
--executable xvdint finished with status     0 in       74.95 seconds (walltime).
 --invoking executable--
/nfs/workspaces/public/cfour_mpi/bin/xanti
 @GETMEM-I,  Allocated    3814 MB of main memory.
 CCSD MO gammas will be sorted to Mulliken order.
 @CHECKOUT-I, Total execution time (CPU/WALL):       15.77/      53.72 seconds.
--executable xanti finished with status     0 in       53.88 seconds (walltime).
 --invoking executable--
/nfs/workspaces/public/cfour_mpi/bin/xbcktrn
 @GETMEM-I,  Allocated    3814 MB of main memory.
 CCSD MO gammas will be transformed to the AO basis.
 @CHECKOUT-I, Total execution time (CPU/WALL):       73.30/      20.53 seconds.
--executable xbcktrn finished with status     0 in       20.60 seconds (walltime).
 --invoking executable--
/nfs/workspaces/public/cfour_mpi/bin/xvdint
 @GETMEM-I,  Allocated    3814 MB of main memory.
 One- and two-electron integral derivatives are calculated
 for RHF-CC/MBPT hessians and dipole derivatives.
 Spherical gaussians are used.
  magnet F F

                     Kinetic energy integral gradient
                     --------------------------------

                         C #1 z    -1.8200214598
                         O #2 z     1.8200214598


 C #1       0.0000000000            0.0000000000           -1.8200214598
 O #2       0.0000000000            0.0000000000            1.8200214598



                   Nuclear attraction integral gradient
                   ------------------------------------

                         C #1 z    26.4320348490
                         O #2 z   -26.4320348490


 C #1       0.0000000000            0.0000000000           26.4320348490
 O #2       0.0000000000            0.0000000000          -26.4320348490



                      Reorthonormalization gradient
                      -----------------------------

                         C #1 z     0.0000000000
                         O #2 z     0.0000000000


 C #1       0.0000000000            0.0000000000            0.0000000000
 O #2       0.0000000000            0.0000000000            0.0000000000



                     Kinetic energy integral Hessian
                     -------------------------------


           Symmetry 1

           C #1 z      O #2 z

 C #1 z    0.882983
 O #2 z   -0.882983    0.882983


           Symmetry 2

           C #1 x      O #2 x

 C #1 x   -2.912401
 O #2 x    2.912401   -2.912401


           Symmetry 3

           C #1 y      O #2 y

 C #1 y   -2.912401
 O #2 y    2.912401   -2.912401




           C #1 x      C #1 y      C #1 z      O #2 x      O #2 y      O #2 z

 C #1 x   -2.912401
 C #1 y    0.000000   -2.912401
 C #1 z    0.000000    0.000000    0.882983

 O #2 x    2.912401    0.000000    0.000000   -2.912401
 O #2 y    0.000000    2.912401    0.000000    0.000000   -2.912401
 O #2 z    0.000000    0.000000   -0.882983    0.000000    0.000000    0.882983




                   Nuclear attraction integral Hessian
                   -----------------------------------


           Symmetry 1

           C #1 z      O #2 z

 C #1 z  -13.186094
 O #2 z   13.186094  -13.186094


           Symmetry 2

           C #1 x      O #2 x

 C #1 x   27.595319
 O #2 x  -27.595319   27.595319


           Symmetry 3

           C #1 y      O #2 y

 C #1 y   27.595319
 O #2 y  -27.595319   27.595319




           C #1 x      C #1 y      C #1 z      O #2 x      O #2 y      O #2 z

 C #1 x   27.595319
 C #1 y    0.000000   27.595319
 C #1 z    0.000000    0.000000  -13.186094

 O #2 x  -27.595319    0.000000    0.000000   27.595319
 O #2 y    0.000000  -27.595319    0.000000    0.000000   27.595319
 O #2 z    0.000000    0.000000   13.186094    0.000000    0.000000  -13.186094




                Highest order reorthonormalization Hessian
                ------------------------------------------


           Symmetry 1

           C #1 z      O #2 z

 C #1 z    0.000000
 O #2 z    0.000000    0.000000


           Symmetry 2

           C #1 x      O #2 x

 C #1 x    0.000000
 O #2 x    0.000000    0.000000


           Symmetry 3

           C #1 y      O #2 y

 C #1 y    0.000000
 O #2 y    0.000000    0.000000




           C #1 x      C #1 y      C #1 z      O #2 x      O #2 y      O #2 z




                Electronic contributions to dipole moment
                -----------------------------------------

                               au             Debye

                    z     -0.95886888     -2.43720201

  Conversion factor used: 1 a.u. =   2.54174691 Debye 



   Electronic contributions to static part of dipole moment derivatives
   --------------------------------------------------------------------


                     Total dipole moment derivatives
                     -------------------------------


           Symmetry 1
                              Ez

               C #1 z    -5.77769144
               O #2 z    -8.22230856

           Symmetry 2
                              Ex

               C #1 x    -5.86365635
               O #2 x    -8.13634365

           Symmetry 3
                              Ey

               C #1 y    -5.86365635
               O #2 y    -8.13634365



                       Ex          Ey          Ez

      C #1    x   -5.863656    0.000000    0.000000
      C #1    y    0.000000   -5.863656    0.000000
      C #1    z    0.000000    0.000000   -5.777691

      O #2    x   -8.136344    0.000000    0.000000
      O #2    y    0.000000   -8.136344    0.000000
      O #2    z    0.000000    0.000000   -8.222309

 Evaluation of 1e integral derivatives required    1.73 seconds.
                    8815  records have been written to the Sort file.
  Total length of Sort file :             180513570  words.
 Evaluation of 2el integral derivatives

                      Two-electron integral gradient
                      ------------------------------

                         C #1 z   -11.7904631675
                         O #2 z    11.7904631675


 C #1       0.0000000000            0.0000000000          -11.7904631675
 O #2       0.0000000000            0.0000000000           11.7904631675


 Evaluation of 2e integral derivatives required  723.81 seconds.

                            Molecular gradient
                            ------------------

                         C #1 z     0.0063198269
                         O #2 z    -0.0063198269


 C #1       0.0000000000            0.0000000000            0.0063198269
 O #2       0.0000000000            0.0000000000           -0.0063198269


  Molecular gradient norm 0.894E-02

                            Molecular hessian
                            -----------------


           Symmetry 1

           C #1 z      O #2 z

 C #1 z   86.988190
 O #2 z  -86.988190   86.988190


           Symmetry 2

           C #1 x      O #2 x

 C #1 x    9.597987
 O #2 x   -9.597987    9.597987


           Symmetry 3

           C #1 y      O #2 y

 C #1 y    9.597987
 O #2 y   -9.597987    9.597987




           C #1 x      C #1 y      C #1 z      O #2 x      O #2 y      O #2 z

 C #1 x    9.597987
 C #1 y    0.000000    9.597987
 C #1 z    0.000000    0.000000   86.988190

 O #2 x   -9.597987    0.000000    0.000000    9.597987
 O #2 y    0.000000   -9.597987    0.000000    0.000000    9.597987
 O #2 z    0.000000    0.000000  -86.988190    0.000000    0.000000   86.988190




                           Total dipole moment
                           -------------------

                               au             Debye

                    z     -0.18503599     -0.47031467

  Conversion factor used: 1 a.u. =   2.54174691 Debye 



                     Total dipole moment derivatives
                     -------------------------------


           Symmetry 1
                              Ez

               C #1 z     0.68390625
               O #2 z    -0.68390625

           Symmetry 2
                              Ex

               C #1 x    -0.09664862
               O #2 x     0.09664862

           Symmetry 3
                              Ey

               C #1 y    -0.09664862
               O #2 y     0.09664862



                       Ex          Ey          Ez

      C #1    x   -0.096649    0.000000    0.000000
      C #1    y    0.000000   -0.096649    0.000000
      C #1    z    0.000000    0.000000    0.683906

      O #2    x    0.096649    0.000000    0.000000
      O #2    y    0.000000    0.096649    0.000000
      O #2    z    0.000000    0.000000   -0.683906

 @CHECKOUT-I, Total execution time (CPU/WALL):      725.53/     125.55 seconds.
--executable xvdint finished with status     0 in      125.80 seconds (walltime).
 --invoking executable--
/nfs/workspaces/public/cfour_mpi/bin/xjoda
  @GTFLGS-I, Hessian will be transformed to curvilinear coordinates.
  @GTFLGS-I, Hessian will be transformed to curvilinear coordinates.
  igrd and ihes are                      0                     1
  gradient from JOBARC 
   0.000000000000000   0.000000000000000   0.006319826932747
   0.000000000000000   0.000000000000000  -0.006319826932747
 
  @PROJFCM-I, Projecting force constant matrix onto totally symmetric subspace.
  Largest difference between matrix elements of symmetrized
  and unsymmetrized FCM :    -0.4118305696E-10.
  read isotopes from ZMAT file 
 
  Summary of diagonal Born-Oppenheimer correction at the correlated level
  The total diagonal Born-Oppenheimer correction (DBOC) is:      0.0038797397 a.u.
  The total diagonal Born-Oppenheimer correction (DBOC) is:        851.504431 cm-1
  The total diagonal Born-Oppenheimer correction (DBOC) is:            10.186 kJ/mole
  hellooooooo 
  readis is  F
 
 @CHECKOUT-I, Total execution time (CPU/WALL):        0.01/       0.09 seconds.
--executable xjoda finished with status     0 in        0.14 seconds (walltime).
  The final electronic energy is      -113.253795625441981 a.u. 
  This computation required                         4049.60 seconds (walltime).
