 --invoking executable--
/nfs/workspaces/public/cfour_mpi/bin/xjoda


   *************************************************************************
         <<<     CCCCCC     CCCCCC   |||     CCCCCC     CCCCCC   >>>
       <<<      CCC        CCC       |||    CCC        CCC         >>>
      <<<      CCC        CCC        |||   CCC        CCC            >>>
    <<<        CCC        CCC        |||   CCC        CCC              >>>
      <<<      CCC        CCC        |||   CCC        CCC            >>>
       <<<      CCC        CCC       |||    CCC        CCC         >>>
         <<<     CCCCCC     CCCCCC   |||     CCCCCC     CCCCCC   >>>
   *************************************************************************

     ****************************************************************
     * CFOUR Coupled-Cluster techniques for Computational Chemistry *
     ****************************************************************
 

   Department of Chemistry                Institut fuer Physikalische Chemie
   University of Florida                  Universitaet Mainz
   Gainesville, FL 32611, USA             D-55099 Mainz, Germany

   Department of Chemistry                Fakultaet fuer Chemie und Biowiss.
   Johns Hopkins University               Karlsruher Institut fuer Technologie
   Baltimore, MD 21218, USA               D-76131 Karlsruhe, Germany

   Department of Chemistry                Department of Physical Chemistry
   Southern Methodist University          Eotvos Lorand University
   Dallas, TX 75275, USA                  H-1053 Budapest, Hungary

 
                       Version 2.1
 
                     vincent.theory.phys.ucl.ac.uk                     
                     Sun  2 Mar 15:08:31 GMT 2025                      
                     integer*8 version is running
 
********************************************************************************
*                          Input from ZMAT file                                *
********************************************************************************
Carbon Monoxide DBOC calculation                                                
C                                                                               
O 1 r                                                                           
                                                                                
r=1.3655172413793104                                                            
                                                                                
                                                                                
*CFOUR(CALC=CCSD,BASIS=AUG-PCVQZ,SCF_CONV=10                                    
CC_CONV=14,DBOC=ON,MEMORY=500000000                                             
ZFIELD=200)                                                                     
                                                                                
%isotopes                                                                       
12                                                                              
18                                                                              
********************************************************************************
  @GTFLGS-I, Hessian will be transformed to curvilinear coordinates.
    -------------------------------------------------------------------
                    CFOUR Control Parameters 
    -------------------------------------------------------------------
        External           Internal           Value            Units
          Name               Name
    -------------------------------------------------------------------
       ABCDTYPE             IABCDT         STANDARD    [  0]    ***   
       ANHARMONIC           IANHAR         OFF         [  0]    ***   
       ANH_ALGORIT          IANALG         STANDARD    [  0]    ***   
       ANH_DERIVAT          IANDER         SECOND      [  1]    ***   
       ANH_MODE             ANHMOD         VIBRATION   [  0]    ***   
       ANH_STEPSIZ          ICUBST             50000          x 10-6  
       ANH_SYMMETR          IANHSM         ABELIAN     [  0]    ***   
       AO_LADDERS           IAOLAD         SINGLEPASS  [  1]    ***   
       AV_SCF               IAVSCF         OFF         [  0]    ***   
       BASIS                IBASIS         AUG-PCVQZ   [ 52]    ***   
       BOTHVECTORS          BOTHVC         OFF         [  0]    ***   
       BOX_POTENT           IPIAB          OFF         [  0]    ***   
       BREIT                IBREIT         OFF         [  0]    ***   
       BRUCK_CONV           IBRTOL          10D-  4             ***   
       BRUECKNER            IBRKNR         OFF         [  0]    ***   
       BUFFERSIZE           IBUFFS              4096            ***   
       CACHE_RECS           ICHREC             10               ***   
       CALCLEVEL            ICLLVL         CCSD        [ 10]    ***   
       CCORBOPT             ICCORB         OFF         [  0]  x 0.01  
       CC_CONV              ICCCNV          10D- 14             ***   
       CC_EXPORDER          ICCEOR              5               ***   
       CC_EXTRAPOL          ICCEXT         DIIS        [  1]    ***   
       CC_GUESS             ICCGES         MP2         [  0]    ***   
       CC_MAXCYC            ICCCYC            100              cycles 
       CC_PROGRAM           ICCPRO         VCC         [  0]    ***   
       CHARGE               ICHRGE              0               ***   
       CHOLESKY             ICHOLE         OFF         [  0]    ***   
       CIS_CONV             ICISTL              5               ***   
       COMM_SIZE            IPSIZE            ***               ***   
       CONSTANT             ICONST         OLD         [  1]    ***   
       CONTINUUM            ICONTU         NONE        [  0]    ***   
       CONTRACTION          ICNTYP         GENERAL     [  1]    ***   
       COORDINATES          ICOORD         INTERNAL    [  0]    ***   
       CPHF_CONVER          ICPHFT          10D- 16             ***   
       CPHF_MAXCYC          ICPHFC             64              cycles 
       CUBIC                ICUBIC         OFF         [  0]    ***   
       CURVILINEAR          ICURVY         ON          [  1]    ***   
       DBOC                 IDBOC          ON          [  1]    ***   
       DCT                  IDCT           OFF         [  0]    ***   
       DERIV_LEV            IDRLVL         SECOND      [  2]    ***   
       DEVMEM_SIZE          IDVMEM          50000000           MByte  
       DIAG_MRCC            IEOMST          10D-  0             ***   
       DIFF_TYPE            IDIFTY         RELAXED     [  0]    ***   
       DIRECT               IDIRCT         OFF         [  0]    ***   
       DROPMO               IDRPMO      NONE         
       ECP                  IECP           OFF         [  0]    ***   
       EIGENVECTOR          IVEC                1               ***   
       EL_ANHARM            IELANH         OFF         [  0]    ***   
       EOMFOLLOW            IEOMSR         ENERGY      [  0]    ***   
       EOMIP                IEOMIP         OFF         [  0]    ***   
       EOMLEVEL             HBARFM         SAME        [  0]    ***   
       EOM_MRCC             IMRCCE         NEW         [  1]    ***   
       EOM_NONIT            EOMNON         OFF         [  0]    ***   
       EOM_NSING            IEOMSI          10D-  0             ***   
       EOM_NSTATES          IMRCCD         DAVIDSON    [  0]    ***   
       EOM_NTRIP            IEOMTR          10D-  0             ***   
       EOM_ORDER            IEXORD         ENERGY      [  0]    ***   
       EOM_PROPSTA          IEOMST              0               ***   
       ESTATE_CONV          IEXTOL          10D-  5             ***   
       ESTATE_DIAG          IEXDIG         ITERATIVE   [  0]    ***   
       ESTATE_LOCK          IESLOC         ON          [  1]    ***   
       ESTATE_MAXC          IEXMXC             40               ***   
       ESTATE_PROP          IEXPRP         OFF         [  0]    ***   
       EVAL_HESS            IRECAL              0            # of cyc.
       EXCITATION           IEXCIT              0               ***   
       EXCITE               IEXCIT         NONE        [  0]    ***   
       EXTERN_POT           IEXPOT         OFF         [  0]    ***   
       FCGRADNEW            IFCGNW         OFF         [  0]    ***   
       FC_FIELD             IFINFC              0             x 10-6  
       FD_CALTYPE           IFDCAL         GRADONLY    [  0]    ***   
       FD_PROJECT           IFDPRJ         OFF         [  1]    ***   
       FD_STEPSIZE          IDISFD              0            10-4 bohr
       FD_USEGROUP          IFDGRP         FULL        [  0]    ***   
       FILE_RECSIZ          IFLREC              4096           words  
       FINITE_PERT          IFIPER              0             x 10-6  
       FIXGEOM              IFIXGM         OFF         [  0]    ***   
       FOCK                 IFOCK          AO          [  1]    ***   
       FREQ_ALGORI          IVIALG         STANDARD    [  0]    ***   
       FROZEN_CORE          IFROCO         OFF         [  0]    ***   
       GAMMA_ABCD           IGABCD         STORE       [  0]    ***   
       GAMMA_ABCI           IGABCI         STORE       [  0]    ***   
       GENBAS_1             IGNBS1              0               ***   
       GENBAS_2             IGNBS2              0               ***   
       GENBAS_3             IGNBS3              0               ***   
       GENBAS_4             IGNBS4              0               ***   
       GEO_CONV             ICONTL              5              H/bohr 
       GEO_MAXCYC           IOPTCY             50               ***   
       GEO_MAXSTEP          IMXSTP            300            millibohr
       GEO_METHOD           INR            SINGLE_POINT[  5]    ***   
       GIAO                 IGIAO          OFF         [  1]    ***   
       GIMIC                IGIMIC         OFF         [  0]    ***   
       GRID                 IGRID          OFF         [  0]    ***   
       GRID_ALGO            IGALGO         SERIAL      [  0]    ***   
       GUESS                IGUESS         MOREAD      [  0]    ***   
       HBAR                 IHBAR          OFF         [  0]    ***   
       HESS_TYPE            IHESTP         SCF         [  0]    ***   
       HF2_FILE             IHF2Fl         USE         [  1]    ***   
       HFSTABILITY          ISTABL         OFF         [  0]    ***   
       INCORE               INCORE         OFF         [  0]    ***   
       INPUT_MRCC           IMRCC          ON          [  1]    ***   
       INTEGRALS            INTTYP         VMOL        [  1]    ***   
       JODA_PRINT           IJPRNT              0               ***   
       KEYWORD_OUT          IDMPKW         NO          [  0]    ***   
       LINDEP_TOL           ILINDP              8               ***   
       LINEQ_CONV           IZTACN          10D-  7           cycles  
       LINEQ_EXPOR          ILMAXD              5               ***   
       LINEQ_MAXCY          ILMAXC            100               ***   
       LINEQ_TYPE           ILTYPE         DIIS        [  1]    ***   
       LOCK_ORBOCC          ILOCOC         OFF         [  0]    ***   
       MEMORY_SIZE          IMEMSZ         500000000           words  
       MEM_UNIT             IMEMU          INTEGERWORDS[  0]    ***   
       MRCC                 IMRCCC         OFF         [  0]    ***   
       MULTIPLICTY          IMULTP              1               ***   
       NACOUPLING           IVCOUP         OFF         [  0]    ***   
       NEGEVAL              IDIE           ABORT       [  0]    ***   
       NEWNORM              INEWNO         OFF         [  0]    ***   
       NON-HF               INONHF         OFF         [  0]    ***   
       NTOP_TAMP            ITOPT2             15               ***   
       NUC_MODEL            INUCMO         POINT       [  0]    ***   
       OCCUPATION           IOCCU   ESTIMATED BY SCF 
       OPEN-SHELL           IOPEN          SPIN-ORBITAL[  0]    ***   
       OPTVIB               IOPTVB         OFF         [  0]    ***   
       ORBITALS             IORBTP         STANDARD    [  0]    ***   
       PARALLEL             IPARAL         ON          [  1]    ***   
       PARA_INT             IPINTS         ON          [  1]    ***   
       PARA_PRINT           IPPRIN              0               ***   
       PERT_ORB             IPTORB         STANDARD    [  0]    ***   
       POINTS               IGRDFD              0               ***   
       PRINT                IPRNT               0               ***   
       PROPS                IPROPS         OFF         [  0]    ***   
       PROP_INTEGR          IINTYP         INTERNAL    [  0]    ***   
       PSI                  IPSI           OFF         [  0]    ***   
       QC_ALG               IQCALG         FLM         [  0]    ***   
       QC_LINALG            IQCLIN         TRIDIAG     [  2]    ***   
       QC_MAXCYC            IQCMAX          10D-100           cycles  
       QC_MAXSCFCY          IQCMSC          10D- 15           cycles  
       QC_RTRUST            IQCRTR          10D-  0           x 10-3  
       QC_SKIPSCF           IQCSKI         OFF         [  0]    ***   
       QC_START             IQCSTA          10D-  1             ***   
       QRHFGUESS            IQGUES         OFF         [  0]    ***   
       QUARTIC              IQUART         OFF         [  0]    ***   
       RAMAN_INT            IRAMIN         OFF         [  0]    ***   
       RAMAN_ORB            IRAMRE         UNRELAXED   [  0]    ***   
       RDO                  IRDOFM         ON          [  1]    ***   
       REDUCE_REPR          REDREP         Ir          [  0]    ***   
       REFERENCE            IREFNC         RHF         [  0]    ***   
       RELATIVIST           IRELAT         OFF         [  0]    ***   
       RELAX_DENS           IRDENS         ON          [  1]    ***   
       RESET_FLAGS          IRESET         OFF         [  0]    ***   
       RESTART_CC           ICCRES         OFF         [  0]    ***   
       ROT_EVEC             ROTVEC              0               ***   
       SAVE_INTS            ISVINT         OFF         [  0]    ***   
       SCALE_ON             ISTCRT              0               ***   
       SCF_CONV             ISCFCV          10D- 10             ***   
       SCF_DAMPING          IDAMP               0             x 10-3  
       SCF_EXPORDE          IRPPOR              6               ***   
       SCF_EXPSTAR          IRPPLS              8               ***   
       SCF_EXTRAPO          IRPP           ON          [  1]    ***   
       SCF_MAXCYC           ISCFCY            150              cycles 
       SCF_NOSTOP           ISCFST         OFF         [  0]    ***   
       SCF_PRINT            ISCFPR              0               ***   
       SCF_PROG             ISCFPR         SCF         [  0]    ***   
       SD_FIELD             IFINSD              0             x 10-6  
       SOPERT               IPERSO         OFF         [  0]    ***   
       SPHERICAL            IDFGHI         ON          [  1]    ***   
       SPINORBIT            ISOCAL         OFF         [  0]    ***   
       SPINROTATIO          ISRCON         OFF         [  0]    ***   
       SPIN_FLIP            ISPFLP         OFF         [  0]    ***   
       SPIN_ORBIT           ISPORB         OFF         [  0]    ***   
       SPIN_SCAL            ISCSMP         OFF         [  0]    ***   
       STEEPSCALE           ISTPSC              1000          x 10-3  
       SUBGROUP             ISUBGP         DEFAULT     [  0]    ***   
       SUBGRPAXIS           ISBXYZ         X           [  0]    ***   
       SYMMETRY             ISYM           ON          [  0]    ***   
       SYM_CHECK            ISYMCK         OVERRIDE    [  1]    ***   
       T3_EXTRAPOL          IT3EXT         OFF         [  0]    ***   
       T4_EXTRAPOL          IT4EXP         OFF         [  0]    ***   
       TAMP_SUM             IEVERY              5               ***   
       TESTSUITE            ITESTS         OFF         [  0]    ***   
       THERMOCH             ITHERM         OFF         [  0]    ***   
       TOL_CHOLESK          ITOLCH          10D-  4             ***   
       TRANGRAD             IRESRM         OFF         [  0]    ***   
       TRANS_INV            ITRAIN         IGNORE      [  1]    ***   
       TREAT_PERT           ITREAT         SIMULTANEOUS[  0]    ***   
       TRIP_ALGORI          ITRALG         NORMAL      [  0]    ***   
       UIJ_THRESHO          IUIJTH              1               ***   
       UNITS                IUNITS         ANGSTROM    [  0]    ***   
       UNOS                 IUNOS          OFF         [  0]    ***   
       UPDATE_HESS          IHUPDT         ON          [  1]    ***   
       VIBPHASE             ISETPH         STANDARD    [  0]    ***   
       VIBRATION            IVIB           ANALYTIC    [  1]    ***   
       VIB_ALGORIT          IGEALG         STANDARD    [  0]    ***   
       VNATORB              IVNORB         OFF         [  0]    ***   
       VTRAN                IVTRAN         FULL/PARTIAL[  0]    ***   
       XFIELD               IXEFLD              0             x 10-6  
       XFORM_TOL            IXFTOL          10D- 11             ***   
       YFIELD               IYEFLD              0             x 10-6  
       ZFIELD               IZEFLD            200             x 10-6  
       ZSCALE_EXP           IZEXPS         OFF         [  0]    ***   
    -------------------------------------------------------------------
   2 entries found in Z-matrix 
   Job Title : Carbon Monoxide DBOC calculation                                                
   There are  1 unique internal coordinates.
   Of these,  0 will be optimized.
   User supplied Z-matrix: 
--------------------------------------------------------------------------------
       SYMBOL    BOND      LENGTH    ANGLE     ANGLE     DIHED     ANGLE
                  TO      (ANGST)    WRT      (DEG)      WRT      (DEG)
--------------------------------------------------------------------------------
        C    
        O          1         r    
                  *Initial values for internal coordinates* 
                      Name             Value
                        r               1.3655172414
--------------------------------------------------------------------------------
  read isotopes from ZMAT file 
   Rotational constants (in cm-1): 
          1.2556765590             1.2556765590
   Rotational constants (in MHz): 
      37644.2414821478         37644.2414821478
********************************************************************************
   The full molecular point group is CXv .
   The largest Abelian subgroup of the full molecular point group is C2v .
   The computational point group is C2v .
********************************************************************************
--------------------------------------------------------------------------------
   Analysis of internal coordinates specified by Z-matrix 
--------------------------------------------------------------------------------
   *The nuclear repulsion energy is   18.601376848484847 a.u.
   *There is   1 degree of freedom within the tot. symm. molecular subspace.
   *Z-matrix requests optimization of   0 coordinates.
   *The optimization is constrained.
   *The following   1 parameters can have non-zero 
    derivatives within the totally symmetric subspace:
             r    [ 1]
   *The following   0 parameters are to be optimized:

   *The following coordinates must be varied in an  unconstrained optimization.
             r    [ 1]
--------------------------------------------------------------------------------


 ----------------------------------------------------------------
         Coordinates used in calculation (QCOMP) 
 ----------------------------------------------------------------
 Z-matrix   Atomic            Coordinates (in bohr)
  Symbol    Number           X              Y              Z
 ----------------------------------------------------------------
     C         6        -0.00000000     0.00000000     1.54824360
     O         8         0.00000000     0.00000000    -1.03221055
 ----------------------------------------------------------------
 
   Interatomic distance matrix (Angstroms) 
 
                 C             O    
                [ 1]        [ 2]
  C    [ 1]     0.00000
  O    [ 2]     1.36552     0.00000
 rotcon2
   Rotational constants (in cm-1): 
          1.2556765590             0.0000000000
   Rotational constants (in MHz): 
      37644.2414821478             0.0000000000
  ECPDATA file not present.   Using default ECPDATA. 
  @GTFLGS-I, Hessian will be transformed to curvilinear coordinates.
  There are  218 basis functions.
 @CHECKOUT-I, Total execution time (CPU/WALL):        0.12/       0.21 seconds.
--executable xjoda finished with status     0 in        0.23 seconds (walltime).
 --invoking executable--
/nfs/workspaces/public/cfour_mpi/bin/xvmol
 SERIAL VERSION OF MOLECULE STARTED
********************************************************************************
                    INPUT FROM MOL FILE
********************************************************************************
INTGRL        1    0    1    0    0    0    0    0    0                         
         *** CFOUR Program System (Release V0.1) ***                            
Carbon Monoxide DBOC calculation                                                
    2    2 X  Y       0.10E-08              0    0                              
   9999.00      3.00                                                            
          6.00000000    1    5    1    1    1    1    1                         
C #1  -0.000000000000000   0.000000000000000   1.548243595704764                
   16    9                                                                      
   33980.0000000000       9.100000000000000E-005 -1.900000000000000E-005        
  0.000000000000000E+000  0.000000000000000E+000  0.000000000000000E+000        
  0.000000000000000E+000  0.000000000000000E+000  0.000000000000000E+000        
  0.000000000000000E+000                                                        
   5089.00000000000       7.040000000000000E-004 -1.510000000000000E-004        
  0.000000000000000E+000  0.000000000000000E+000  0.000000000000000E+000        
  0.000000000000000E+000  0.000000000000000E+000  0.000000000000000E+000        
  0.000000000000000E+000                                                        
   1157.00000000000       3.693000000000000E-003 -7.850000000000000E-004        
  0.000000000000000E+000  0.000000000000000E+000  0.000000000000000E+000        
  0.000000000000000E+000  0.000000000000000E+000  0.000000000000000E+000        
  0.000000000000000E+000                                                        
   326.600000000000       1.536000000000000E-002 -3.324000000000000E-003        
  0.000000000000000E+000  0.000000000000000E+000  0.000000000000000E+000        
  0.000000000000000E+000  0.000000000000000E+000  0.000000000000000E+000        
  0.000000000000000E+000                                                        
   106.100000000000       5.292900000000000E-002 -1.151200000000000E-002        
  0.000000000000000E+000  0.000000000000000E+000  0.000000000000000E+000        
  0.000000000000000E+000  0.000000000000000E+000  0.000000000000000E+000        
  0.000000000000000E+000                                                        
   38.1100000000000       0.147043000000000      -3.416000000000000E-002        
  0.000000000000000E+000  0.000000000000000E+000  0.000000000000000E+000        
  0.000000000000000E+000  0.000000000000000E+000  0.000000000000000E+000        
  0.000000000000000E+000                                                        
   14.7500000000000       0.305631000000000      -7.717300000000001E-002        
  0.000000000000000E+000  0.000000000000000E+000  0.000000000000000E+000        
  0.000000000000000E+000  0.000000000000000E+000  0.000000000000000E+000        
  0.000000000000000E+000                                                        
   6.03500000000000       0.399345000000000      -0.141493000000000             
  0.000000000000000E+000  0.000000000000000E+000  0.000000000000000E+000        
  0.000000000000000E+000  0.000000000000000E+000  0.000000000000000E+000        
  0.000000000000000E+000                                                        
   2.53000000000000       0.217051000000000      -0.118019000000000             
  0.000000000000000E+000  0.000000000000000E+000  0.000000000000000E+000        
  0.000000000000000E+000  0.000000000000000E+000  0.000000000000000E+000        
  0.000000000000000E+000                                                        
  0.735500000000000       1.589400000000000E-002  0.273806000000000             
   1.00000000000000       0.000000000000000E+000  0.000000000000000E+000        
  0.000000000000000E+000  0.000000000000000E+000  0.000000000000000E+000        
  0.000000000000000E+000                                                        
  0.290500000000000      -3.084000000000000E-003  0.586510000000000             
  0.000000000000000E+000   1.00000000000000       0.000000000000000E+000        
  0.000000000000000E+000  0.000000000000000E+000  0.000000000000000E+000        
  0.000000000000000E+000                                                        
  0.111100000000000       9.779999999999999E-004  0.285430000000000             
  0.000000000000000E+000  0.000000000000000E+000   1.00000000000000             
  0.000000000000000E+000  0.000000000000000E+000  0.000000000000000E+000        
  0.000000000000000E+000                                                        
   7.21600000000000       0.000000000000000E+000  0.000000000000000E+000        
  0.000000000000000E+000  0.000000000000000E+000  0.000000000000000E+000        
   1.00000000000000       0.000000000000000E+000  0.000000000000000E+000        
  0.000000000000000E+000                                                        
   19.5700000000000       0.000000000000000E+000  0.000000000000000E+000        
  0.000000000000000E+000  0.000000000000000E+000  0.000000000000000E+000        
  0.000000000000000E+000   1.00000000000000       0.000000000000000E+000        
  0.000000000000000E+000                                                        
   53.0730000000000       0.000000000000000E+000  0.000000000000000E+000        
  0.000000000000000E+000  0.000000000000000E+000  0.000000000000000E+000        
  0.000000000000000E+000  0.000000000000000E+000   1.00000000000000             
  0.000000000000000E+000                                                        
  4.145000000000000E-002  0.000000000000000E+000  0.000000000000000E+000        
  0.000000000000000E+000  0.000000000000000E+000  0.000000000000000E+000        
  0.000000000000000E+000  0.000000000000000E+000  0.000000000000000E+000        
   1.00000000000000                                                             
   10    8                                                                      
   34.5100000000000       5.378000000000000E-003  0.000000000000000E+000        
  0.000000000000000E+000  0.000000000000000E+000  0.000000000000000E+000        
  0.000000000000000E+000  0.000000000000000E+000  0.000000000000000E+000        
   7.91500000000000       3.613200000000000E-002  0.000000000000000E+000        
  0.000000000000000E+000  0.000000000000000E+000  0.000000000000000E+000        
  0.000000000000000E+000  0.000000000000000E+000  0.000000000000000E+000        
   2.36800000000000       0.142493000000000       0.000000000000000E+000        
  0.000000000000000E+000  0.000000000000000E+000  0.000000000000000E+000        
  0.000000000000000E+000  0.000000000000000E+000  0.000000000000000E+000        
  0.813200000000000       0.342150000000000        1.00000000000000             
  0.000000000000000E+000  0.000000000000000E+000  0.000000000000000E+000        
  0.000000000000000E+000  0.000000000000000E+000  0.000000000000000E+000        
  0.289000000000000       0.463864000000000       0.000000000000000E+000        
   1.00000000000000       0.000000000000000E+000  0.000000000000000E+000        
  0.000000000000000E+000  0.000000000000000E+000  0.000000000000000E+000        
  0.100700000000000       0.250028000000000       0.000000000000000E+000        
  0.000000000000000E+000   1.00000000000000       0.000000000000000E+000        
  0.000000000000000E+000  0.000000000000000E+000  0.000000000000000E+000        
   8.18200000000000       0.000000000000000E+000  0.000000000000000E+000        
  0.000000000000000E+000  0.000000000000000E+000   1.00000000000000             
  0.000000000000000E+000  0.000000000000000E+000  0.000000000000000E+000        
   24.1860000000000       0.000000000000000E+000  0.000000000000000E+000        
  0.000000000000000E+000  0.000000000000000E+000  0.000000000000000E+000        
   1.00000000000000       0.000000000000000E+000  0.000000000000000E+000        
   71.4940000000000       0.000000000000000E+000  0.000000000000000E+000        
  0.000000000000000E+000  0.000000000000000E+000  0.000000000000000E+000        
  0.000000000000000E+000   1.00000000000000       0.000000000000000E+000        
  3.218000000000000E-002  0.000000000000000E+000  0.000000000000000E+000        
  0.000000000000000E+000  0.000000000000000E+000  0.000000000000000E+000        
  0.000000000000000E+000  0.000000000000000E+000   1.00000000000000             
    6    6                                                                      
   1.84800000000000        1.00000000000000       0.000000000000000E+000        
  0.000000000000000E+000  0.000000000000000E+000  0.000000000000000E+000        
  0.000000000000000E+000                                                        
  0.649000000000000       0.000000000000000E+000   1.00000000000000             
  0.000000000000000E+000  0.000000000000000E+000  0.000000000000000E+000        
  0.000000000000000E+000                                                        
  0.228000000000000       0.000000000000000E+000  0.000000000000000E+000        
   1.00000000000000       0.000000000000000E+000  0.000000000000000E+000        
  0.000000000000000E+000                                                        
   8.65600000000000       0.000000000000000E+000  0.000000000000000E+000        
  0.000000000000000E+000   1.00000000000000       0.000000000000000E+000        
  0.000000000000000E+000                                                        
   33.2130000000000       0.000000000000000E+000  0.000000000000000E+000        
  0.000000000000000E+000  0.000000000000000E+000   1.00000000000000             
  0.000000000000000E+000                                                        
  7.660000000000000E-002  0.000000000000000E+000  0.000000000000000E+000        
  0.000000000000000E+000  0.000000000000000E+000  0.000000000000000E+000        
   1.00000000000000                                                             
    4    4                                                                      
   1.41900000000000        1.00000000000000       0.000000000000000E+000        
  0.000000000000000E+000  0.000000000000000E+000                                
  0.485000000000000       0.000000000000000E+000   1.00000000000000             
  0.000000000000000E+000  0.000000000000000E+000                                
   24.6940000000000       0.000000000000000E+000  0.000000000000000E+000        
   1.00000000000000       0.000000000000000E+000                                
  0.187000000000000       0.000000000000000E+000  0.000000000000000E+000        
  0.000000000000000E+000   1.00000000000000                                     
    2    2                                                                      
   1.01100000000000        1.00000000000000       0.000000000000000E+000        
  0.424000000000000       0.000000000000000E+000   1.00000000000000             
          8.00000000    1    5    1    1    1    1    1                         
O #2   0.000000000000000   0.000000000000000  -1.032210549758656                
   16    9                                                                      
   61420.0000000000       9.000000000000001E-005 -2.000000000000000E-005        
  0.000000000000000E+000  0.000000000000000E+000  0.000000000000000E+000        
  0.000000000000000E+000  0.000000000000000E+000  0.000000000000000E+000        
  0.000000000000000E+000                                                        
   9199.00000000000       6.980000000000001E-004 -1.590000000000000E-004        
  0.000000000000000E+000  0.000000000000000E+000  0.000000000000000E+000        
  0.000000000000000E+000  0.000000000000000E+000  0.000000000000000E+000        
  0.000000000000000E+000                                                        
   2091.00000000000       3.664000000000000E-003 -8.290000000000000E-004        
  0.000000000000000E+000  0.000000000000000E+000  0.000000000000000E+000        
  0.000000000000000E+000  0.000000000000000E+000  0.000000000000000E+000        
  0.000000000000000E+000                                                        
   590.900000000000       1.521800000000000E-002 -3.508000000000000E-003        
  0.000000000000000E+000  0.000000000000000E+000  0.000000000000000E+000        
  0.000000000000000E+000  0.000000000000000E+000  0.000000000000000E+000        
  0.000000000000000E+000                                                        
   192.300000000000       5.242300000000000E-002 -1.215600000000000E-002        
  0.000000000000000E+000  0.000000000000000E+000  0.000000000000000E+000        
  0.000000000000000E+000  0.000000000000000E+000  0.000000000000000E+000        
  0.000000000000000E+000                                                        
   69.3200000000000       0.145921000000000      -3.626100000000000E-002        
  0.000000000000000E+000  0.000000000000000E+000  0.000000000000000E+000        
  0.000000000000000E+000  0.000000000000000E+000  0.000000000000000E+000        
  0.000000000000000E+000                                                        
   26.9700000000000       0.305258000000000      -8.299200000000000E-002        
  0.000000000000000E+000  0.000000000000000E+000  0.000000000000000E+000        
  0.000000000000000E+000  0.000000000000000E+000  0.000000000000000E+000        
  0.000000000000000E+000                                                        
   11.1000000000000       0.398508000000000      -0.152090000000000             
  0.000000000000000E+000  0.000000000000000E+000  0.000000000000000E+000        
  0.000000000000000E+000  0.000000000000000E+000  0.000000000000000E+000        
  0.000000000000000E+000                                                        
   4.68200000000000       0.216980000000000      -0.115331000000000             
  0.000000000000000E+000  0.000000000000000E+000  0.000000000000000E+000        
  0.000000000000000E+000  0.000000000000000E+000  0.000000000000000E+000        
  0.000000000000000E+000                                                        
   1.42800000000000       1.759400000000000E-002  0.288979000000000             
   1.00000000000000       0.000000000000000E+000  0.000000000000000E+000        
  0.000000000000000E+000  0.000000000000000E+000  0.000000000000000E+000        
  0.000000000000000E+000                                                        
  0.554700000000000      -2.502000000000000E-003  0.586128000000000             
  0.000000000000000E+000   1.00000000000000       0.000000000000000E+000        
  0.000000000000000E+000  0.000000000000000E+000  0.000000000000000E+000        
  0.000000000000000E+000                                                        
  0.206700000000000       9.540000000000000E-004  0.277624000000000             
  0.000000000000000E+000  0.000000000000000E+000   1.00000000000000             
  0.000000000000000E+000  0.000000000000000E+000  0.000000000000000E+000        
  0.000000000000000E+000                                                        
   12.9740000000000       0.000000000000000E+000  0.000000000000000E+000        
  0.000000000000000E+000  0.000000000000000E+000  0.000000000000000E+000        
   1.00000000000000       0.000000000000000E+000  0.000000000000000E+000        
  0.000000000000000E+000                                                        
   34.9000000000000       0.000000000000000E+000  0.000000000000000E+000        
  0.000000000000000E+000  0.000000000000000E+000  0.000000000000000E+000        
  0.000000000000000E+000   1.00000000000000       0.000000000000000E+000        
  0.000000000000000E+000                                                        
   93.8810000000000       0.000000000000000E+000  0.000000000000000E+000        
  0.000000000000000E+000  0.000000000000000E+000  0.000000000000000E+000        
  0.000000000000000E+000  0.000000000000000E+000   1.00000000000000             
  0.000000000000000E+000                                                        
  6.959000000000000E-002  0.000000000000000E+000  0.000000000000000E+000        
  0.000000000000000E+000  0.000000000000000E+000  0.000000000000000E+000        
  0.000000000000000E+000  0.000000000000000E+000  0.000000000000000E+000        
   1.00000000000000                                                             
   10    8                                                                      
   63.4200000000000       6.044000000000000E-003  0.000000000000000E+000        
  0.000000000000000E+000  0.000000000000000E+000  0.000000000000000E+000        
  0.000000000000000E+000  0.000000000000000E+000  0.000000000000000E+000        
   14.6600000000000       4.179900000000000E-002  0.000000000000000E+000        
  0.000000000000000E+000  0.000000000000000E+000  0.000000000000000E+000        
  0.000000000000000E+000  0.000000000000000E+000  0.000000000000000E+000        
   4.45900000000000       0.161143000000000       0.000000000000000E+000        
  0.000000000000000E+000  0.000000000000000E+000  0.000000000000000E+000        
  0.000000000000000E+000  0.000000000000000E+000  0.000000000000000E+000        
   1.53100000000000       0.356731000000000        1.00000000000000             
  0.000000000000000E+000  0.000000000000000E+000  0.000000000000000E+000        
  0.000000000000000E+000  0.000000000000000E+000  0.000000000000000E+000        
  0.530200000000000       0.448309000000000       0.000000000000000E+000        
   1.00000000000000       0.000000000000000E+000  0.000000000000000E+000        
  0.000000000000000E+000  0.000000000000000E+000  0.000000000000000E+000        
  0.175000000000000       0.244940000000000       0.000000000000000E+000        
  0.000000000000000E+000   1.00000000000000       0.000000000000000E+000        
  0.000000000000000E+000  0.000000000000000E+000  0.000000000000000E+000        
   14.4750000000000       0.000000000000000E+000  0.000000000000000E+000        
  0.000000000000000E+000  0.000000000000000E+000   1.00000000000000             
  0.000000000000000E+000  0.000000000000000E+000  0.000000000000000E+000        
   42.7300000000000       0.000000000000000E+000  0.000000000000000E+000        
  0.000000000000000E+000  0.000000000000000E+000  0.000000000000000E+000        
   1.00000000000000       0.000000000000000E+000  0.000000000000000E+000        
   126.140000000000       0.000000000000000E+000  0.000000000000000E+000        
  0.000000000000000E+000  0.000000000000000E+000  0.000000000000000E+000        
  0.000000000000000E+000   1.00000000000000       0.000000000000000E+000        
  5.348000000000000E-002  0.000000000000000E+000  0.000000000000000E+000        
  0.000000000000000E+000  0.000000000000000E+000  0.000000000000000E+000        
  0.000000000000000E+000  0.000000000000000E+000   1.00000000000000             
    6    6                                                                      
   3.77500000000000        1.00000000000000       0.000000000000000E+000        
  0.000000000000000E+000  0.000000000000000E+000  0.000000000000000E+000        
  0.000000000000000E+000                                                        
   1.30000000000000       0.000000000000000E+000   1.00000000000000             
  0.000000000000000E+000  0.000000000000000E+000  0.000000000000000E+000        
  0.000000000000000E+000                                                        
  0.444000000000000       0.000000000000000E+000  0.000000000000000E+000        
   1.00000000000000       0.000000000000000E+000  0.000000000000000E+000        
  0.000000000000000E+000                                                        
   14.9270000000000       0.000000000000000E+000  0.000000000000000E+000        
  0.000000000000000E+000   1.00000000000000       0.000000000000000E+000        
  0.000000000000000E+000                                                        
   57.5440000000000       0.000000000000000E+000  0.000000000000000E+000        
  0.000000000000000E+000  0.000000000000000E+000   1.00000000000000             
  0.000000000000000E+000                                                        
  0.154000000000000       0.000000000000000E+000  0.000000000000000E+000        
  0.000000000000000E+000  0.000000000000000E+000  0.000000000000000E+000        
   1.00000000000000                                                             
    4    4                                                                      
   2.66600000000000        1.00000000000000       0.000000000000000E+000        
  0.000000000000000E+000  0.000000000000000E+000                                
  0.859000000000000       0.000000000000000E+000   1.00000000000000             
  0.000000000000000E+000  0.000000000000000E+000                                
   26.4830000000000       0.000000000000000E+000  0.000000000000000E+000        
   1.00000000000000       0.000000000000000E+000                                
  0.324000000000000       0.000000000000000E+000  0.000000000000000E+000        
  0.000000000000000E+000   1.00000000000000                                     
    2    2                                                                      
   1.84600000000000        1.00000000000000       0.000000000000000E+000        
  0.714000000000000       0.000000000000000E+000   1.00000000000000             
FINISH                                                                          
 
********************************************************************************
 ONE- AND TWO-ELECTRON INTEGRALS OVER SYMMETRY-ADAPTED AOS ARE CALCULATED.

  SPHERICAL HARMONICS ARE USED.
  
  INTEGRALS LESS THAN  0.10E-13 ARE NEGLECTED.

  NUCLEAR REPULSION ENERGY :   18.6013768485 A.U.
  @MOLECU-I, ONE ELECTRON INTEGRALS (CPU/WALL):        0.07/       0.08 SECONDS.
  @TWOEL-I,    4506327 INTEGRALS OF SYMMETRY TYPE  I I I I
  @TWOEL-I,   19416400 INTEGRALS OF SYMMETRY TYPE  I J I J
  @TWOEL-I,   10224506 INTEGRALS OF SYMMETRY TYPE  I I J J
  @TWOEL-I,   14375300 INTEGRALS OF SYMMETRY TYPE  I J K L
  @TWOEL-I, TOTAL NUMBER OF 2-E INTEGRALS   48522533.
  @MOLECU-I, TWO ELECTRON INTEGRALS (CPU/WALL):      222.45/      30.52 SECONDS.
 @CHECKOUT-I, Total execution time (CPU/WALL):      222.55/      30.63 seconds.

Running with 14 threads/proc

--executable xvmol finished with status     0 in       30.66 seconds (walltime).
 --invoking executable--
/nfs/workspaces/public/cfour_mpi/bin/xvmol2ja
 @GETMEM-I,  Allocated    3814 MB of main memory.
 @CHECKOUT-I, Total execution time (CPU/WALL):        0.17/       0.06 seconds.
--executable xvmol2ja finished with status     0 in        0.11 seconds (walltime).
 --invoking executable--
/nfs/workspaces/public/cfour_mpi/bin/xvprop
 @GETMEM-I,  Allocated    3814 MB of main memory.
   Property integrals will be calculated.
    --------------------------------------------------------------
                                   Property evaluated at 
    Property type                X             Y             Z
    --------------------------------------------------------------
    Dipole moment               ----          ----          ----  
    Quadrupole moment           ----          ----          ----  
    Octopole moment             ----          ----          ----  
    Relativisitic corr.         ----          ----          ----  
    Second moment            0.0000000     0.0000000     0.0000000
    Electron density         0.0000000     0.0000000     1.5482436
    Electron density         0.0000000     0.0000000    -1.0322105
    Field gradient           0.0000000     0.0000000     1.5482436
    Field gradient           0.0000000     0.0000000    -1.0322105
    Potential                0.0000000     0.0000000     1.5482436
    Potential                0.0000000     0.0000000    -1.0322105
    --------------------------------------------------------------
 @CHECKOUT-I, Total execution time (CPU/WALL):        1.29/       1.33 seconds.
--executable xvprop finished with status     0 in        1.35 seconds (walltime).
 --invoking executable--
/nfs/workspaces/public/cfour_mpi/bin/xvscf
  There are  218 functions in the AO basis.

  There are 4 irreducible representations.

       Irrep        # of functions
         1                 86
         2                 52
         3                 52
         4                 28


  Parameters for SCF calculation: 
        SCF reference function:  RHF  
  Maximum number of iterations:  150
     Full symmetry point group: CXv 
     Computational point group: C2v 
        Initial density matrix: MOREAD                 
     SCF convergence tolerance: 10**(-10)
  DIIS convergence acceleration:  ON
          Latest start for DIIS:   8
                     DIIS order:   6

  Memory information:    2523578 words required.
  Fock matrices are constructed from AO integral file.
 @GETMEM-I,  Allocated      19 MB of main memory.
  Initialization and symmetry analysis required      0.001 seconds.

  Adding electric field perturbation to one-electron Hamiltonian.
  Field direction     : Z
  Field strength      :  0.0002000 a.u.

  @INITGES-I, Occupancies from core Hamiltonian:

          Alpha population by irrep:   5    1    1    0
           Beta population by irrep:   5    1    1    0


 total no. of electrons in initial guess :  0.000000000000000E+000
  --------------------------------------------------------------------
  Iteration         Total Energy            Largest Density Difference
  --------------------------------------------------------------------
       0            18.601170493050134              0.0000000000D+00
   current occupation vector 
     5  1  1  0
     5  1  1  0
       1           -93.058414293109010              0.1771708475D+02
   current occupation vector 
     5  1  1  0
     5  1  1  0
       2           -98.378412717333674              0.1771405859D+02
   current occupation vector 
     5  1  1  0
     5  1  1  0
       3          -103.409580234826805              0.6838986344D+01
   current occupation vector 
     5  1  1  0
     5  1  1  0
       4           -98.859578735577713              0.6831437009D+01
   current occupation vector 
     5  1  1  0
     5  1  1  0
       5          -101.478745419208394              0.6345416058D+01
   current occupation vector 
     5  1  1  0
     5  1  1  0
       6           -97.377521335899175              0.6328442694D+01
   current occupation vector 
     5  1  1  0
     5  1  1  0
       7          -101.471533708243825              0.6478913891D+01
   current occupation vector 
     5  1  1  0
     5  1  1  0
       8           -97.288095935748416              0.6478592641D+01
   current occupation vector 
     5  1  1  0
     5  1  1  0
       9          -108.460388921503167              0.4927587852D+01
   current occupation vector 
     5  1  1  0
     5  1  1  0
      10          -110.452344426726469              0.1059028404D+01
   current occupation vector 
     5  1  1  0
     5  1  1  0
      11          -112.463516670419935              0.1205425904D+01
   current occupation vector 
     5  1  1  0
     5  1  1  0
      12          -112.679145111551193              0.4796371054D+00
   current occupation vector 
     5  1  1  0
     5  1  1  0
      13          -112.681149397830595              0.6831013337D-01
   current occupation vector 
     5  1  1  0
     5  1  1  0
      14          -112.681502995178519              0.2628301576D-01
   current occupation vector 
     5  1  1  0
     5  1  1  0
      15          -112.681530397525890              0.8969536228D-02
   current occupation vector 
     5  1  1  0
     5  1  1  0
      16          -112.681530858805715              0.9279280452D-03
   current occupation vector 
     5  1  1  0
     5  1  1  0
      17          -112.681530866439388              0.1369566887D-03
   current occupation vector 
     5  1  1  0
     5  1  1  0
      18          -112.681530866952542              0.3653613553D-04
   current occupation vector 
     5  1  1  0
     5  1  1  0
      19          -112.681530867024989              0.1436307069D-04
   current occupation vector 
     5  1  1  0
     5  1  1  0
      20          -112.681530867038774              0.8322320846D-05
   current occupation vector 
     5  1  1  0
     5  1  1  0
      21          -112.681530867037807              0.4143696914D-06
   current occupation vector 
     5  1  1  0
     5  1  1  0
      22          -112.681530867038433              0.1198493387D-06
   current occupation vector 
     5  1  1  0
     5  1  1  0
      23          -112.681530867037580              0.1529480431D-07
   current occupation vector 
     5  1  1  0
     5  1  1  0
      24          -112.681530867037637              0.5461717523D-08
   current occupation vector 
     5  1  1  0
     5  1  1  0
      25          -112.681530867038830              0.3696642992D-09
   current occupation vector 
     5  1  1  0
     5  1  1  0
      26          -112.681530867038177              0.2551665546D-09
   current occupation vector 
     5  1  1  0
     5  1  1  0

  SCF has converged.

 Density matrix saved to file den.dat
 total electron number:   14.0000000000000     
     E(SCF)=      -112.681530867037552              0.9545675361D-10

  Eigenvector printing suppressed.

 @PUTMOS-I, Writing converged MOs to NEWMOS. 
 @PUTMOS-I, Symmetry   1 Full Blocks 21 Partial Blocksize   2
 @PUTMOS-I, Symmetry   2 Full Blocks 13 Partial Blocksize   0
 @PUTMOS-I, Symmetry   3 Full Blocks 13 Partial Blocksize   0
 @PUTMOS-I, Symmetry   4 Full Blocks  7 Partial Blocksize   0
 @PUTFOCK-I, Writing converged Fock matrix to NEWFOCK. 
 @PUTFOCK-I, Symmetry   1 Full Blocks 21 Partial Blocksize   2
 @PUTFOCK-I, Symmetry   2 Full Blocks 13 Partial Blocksize   0
 @PUTFOCK-I, Symmetry   3 Full Blocks 13 Partial Blocksize   0
 @PUTFOCK-I, Symmetry   4 Full Blocks  7 Partial Blocksize   0


 
  ORBITAL EIGENVALUES (ALPHA)  (1H = 27.2113834 eV)

       MO #        E(hartree)               E(eV)           FULLSYM    COMPSYM
       ----   --------------------   --------------------   -------   ---------
    1     1         -20.6628584010        -562.2649620906     SG+        A1 (1)
    2     2         -11.4570790852        -311.7629716309     SG+        A1 (1)
    3     3          -1.3770244417         -37.4707400346     SG+        A1 (1)
    4     4          -0.7929022314         -21.5759666177     SG+        A1 (1)
    5     5          -0.5638208001         -15.3423439591     SG+        A1 (1)
    6    87          -0.5539213135         -15.0729652345      PI        B1 (2)
    7   139          -0.5539213135         -15.0729652345      PI        B2 (3)
  +++++++++++++++++++++++++++++++++++++++++++++++++++++++++++++++++++++++++++++
    8    88           0.0396283255           1.0783415573      PI        B1 (2)
    9   140           0.0396283255           1.0783415573      PI        B2 (3)
   10     6           0.0634256520           1.7258997329     SG+        A1 (1)
   11     7           0.0702654431           1.9120199120     SG+        A1 (1)
   12   141           0.0933789887           2.5409714621      PI        B2 (3)
   13    89           0.0933789887           2.5409714621      PI        B1 (2)
   14     8           0.1565027103           4.2586552529     SG+        A1 (1)
   15   142           0.1709233156           4.6510598716      PI        B2 (3)
   16    90           0.1709233156           4.6510598716      PI        B1 (2)
   17     9           0.2261876780           6.1548796277      DE        A1 (1)
   18   191           0.2261876780           6.1548796277      DE        A2 (4)
   19    10           0.2263850596           6.1602506534     SG+        A1 (1)
   20    11           0.2995324102           8.1506912545     SG+        A1 (1)
   21   143           0.3002379944           8.1698911777      PI        B2 (3)
   22    91           0.3002379944           8.1698911777      PI        B1 (2)
   23    12           0.3744388802          10.1889999293     SG+        A1 (1)
   24   144           0.3980374759          10.8311503647      PI        B2 (3)
   25    92           0.3980374759          10.8311503647      PI        B1 (2)
   26    13           0.5075820625          13.8120101087     SG+        A1 (1)
   27    14           0.5175312581          14.0827414864     SG+        A1 (1)
   28   192           0.5456034860          14.8466256430      DE        A2 (4)
   29    15           0.5456034860          14.8466256430      DE        A1 (1)
   30   145           0.6250821618          17.0093503616      PI        B2 (3)
   31    93           0.6250821618          17.0093503616      PI        B1 (2)
   32   146           0.7419122047          20.1884574500      PH        B2 (3)
   33    94           0.7419122047          20.1884574500      PH        B1 (2)
   34    16           0.7432681871          20.2253556086     SG+        A1 (1)
   35   193           0.7550816440          20.5468161141      DE        A2 (4)
   36    17           0.7550816440          20.5468161141      DE        A1 (1)
   37   147           0.7967268234          21.6800390574      PI        B2 (3)
   38    95           0.7967268234          21.6800390574      PI        B1 (2)
   39    18           0.8253042010          22.4576690351     SG+        A1 (1)
   40    19           0.8677510597          23.6127067809     SG+        A1 (1)
   41    20           0.8769119028          23.8619859948      DE        A1 (1)
   42   194           0.8769119028          23.8619859948      DE        A2 (4)
   43   148           0.8972142313          24.4144404411      PI        B2 (3)
   44    96           0.8972142313          24.4144404411      PI        B1 (2)
   45   149           1.0369608685          28.2171397638      PI        B2 (3)
   46    97           1.0369608685          28.2171397638      PI        B1 (2)
   47    21           1.1235035145          30.5720848854     SG+        A1 (1)
   48    22           1.4081426549          38.3175096643     SG+        A1 (1)
   49    98           1.4309627636          38.9384763901      PH        B1 (2)
   50   150           1.4309627636          38.9384763901      PH        B2 (3)
   51    23           1.5572463116          42.3748264335      DE        A1 (1)
   52   195           1.5572463116          42.3748264335      DE        A2 (4)
   53   151           1.5634215292          42.5428626479      PI        B2 (3)
   54    99           1.5634215292          42.5428626479      PI        B1 (2)
   55    24           1.6404796150          44.6397197638     SG+        A1 (1)
   56   100           1.6579940339          45.1163113316      PI        B1 (2)
   57   152           1.6579940339          45.1163113316      PI        B2 (3)
   58    25           1.7252858220          46.9474139775      DE        A1 (1)
   59   196           1.7252858220          46.9474139776      DE        A2 (4)
   60    26           1.8655694352          50.7647251610     SG+        A1 (1)
   61    27           2.0210473826          54.9954951968     SG+        A1 (1)
   62   153           2.0748127981          56.4585265322      PI        B2 (3)
   63   101           2.0748127981          56.4585265323      PI        B1 (2)
   64    28           2.0877357107          56.8101768608      PI        A1 (1)
   65   197           2.0877357107          56.8101768608      PI        A2 (4)
   66   198           2.1553355791          58.6496627975      DE        A2 (4)
   67    29           2.1553355791          58.6496627975      DE        A1 (1)
   68   154           2.2297514577          60.6746218031      PH        B2 (3)
   69   102           2.2297514577          60.6746218031      PH        B1 (2)
   70   155           2.2729164679          61.8492014429      PI        B2 (3)
   71   103           2.2729164679          61.8492014429      PI        B1 (2)
   72   156           2.2797021498          62.0338492352      PH        B2 (3)
   73   104           2.2797021498          62.0338492352      PH        B1 (2)
   74    30           2.2814857514          62.0823835020     SG+        A1 (1)
   75   199           2.3230866461          63.2144013975      DE        A2 (4)
   76    31           2.3230866461          63.2144013975      DE        A1 (1)
   77    32           2.5005364914          68.0430571718     SG+        A1 (1)
   78   105           2.5323772972          68.9094895483      PI        B1 (2)
   79   157           2.5323772972          68.9094895483      PI        B2 (3)
   80    33           2.6397195679          71.8304212305     SG+        A1 (1)
   81   158           2.6652570972          72.5253327323      PI        B2 (3)
   82   106           2.6652570972          72.5253327323      PI        B1 (2)
   83    34           2.8085487054          76.4244956206      DE        A1 (1)
   84   200           2.8085487054          76.4244956208      DE        A2 (4)
   85    35           3.3056477014          89.9512469872     SG+        A1 (1)
   86   107           3.6012559686          97.9951568818      PI        B1 (2)
   87   159           3.6012559686          97.9951568818      PI        B2 (3)
   88    36           3.7014054526         100.7203628889      PI        A1 (1)
   89   201           3.7014054526         100.7203628889      PI        A2 (4)
   90    37           3.8993055870         106.1054993224     SG+        A1 (1)
   91   108           4.0423441524         109.9977765647      PH        B1 (2)
   92   160           4.0423441524         109.9977765647      PH        B2 (3)
   93   161           4.1267436678         112.2944041382      PH        B2 (3)
   94   109           4.1267436678         112.2944041382      PH        B1 (2)
   95   110           4.1732212296         113.5591228922      PI        B1 (2)
   96   162           4.1732212296         113.5591228922      PI        B2 (3)
   97    38           4.2131256517         114.6449774203     SG+        A1 (1)
   98    39           4.2170529364         114.7518442701      DE        A1 (1)
   99   202           4.2170529364         114.7518442701      DE        A2 (4)
  100    40           4.2872940593         116.6632023960      DE        A1 (1)
  101   203           4.2872940593         116.6632023961      DE        A2 (4)
  102    41           4.3893116761         119.4392428794     SG+        A1 (1)
  103   163           4.7640645242         129.6367863105      PI        B2 (3)
  104   111           4.7640645242         129.6367863105      PI        B1 (2)
  105    42           4.9227295987         133.9542824858      DE        A1 (1)
  106   204           4.9227295987         133.9542824861      DE        A2 (4)
  107    43           5.0096294705         136.3189482124     SG+        A1 (1)
  108   112           5.0327922250         136.9492388059      PI        B1 (2)
  109   164           5.0327922250         136.9492388060      PI        B2 (3)
  110    44           5.3687121564         146.0900848514     SG+        A1 (1)
  111   113           5.5234409492         150.3004693551      PI        B1 (2)
  112   165           5.5234409492         150.3004693552      PI        B2 (3)
  113   205           5.8638595323         159.5637299358      PI        A2 (4)
  114    45           5.8638595323         159.5637299358      PI        A1 (1)
  115   166           5.9683746683         162.4077313746      PH        B2 (3)
  116   114           5.9683746683         162.4077313746      PH        B1 (2)
  117    46           6.1903270360         168.4473623481     SG+        A1 (1)
  118    47           6.2070732467         168.9030499069      DE        A1 (1)
  119   206           6.2070732467         168.9030499070      DE        A2 (4)
  120   115           6.2351950826         169.6682839676      PI        B1 (2)
  121   167           6.2351950826         169.6682839676      PI        B2 (3)
  122    48           6.3882623068         173.8334548909     SG+        A1 (1)
  123   168           6.3988433829         174.1213806092      PH        B2 (3)
  124   116           6.3988433829         174.1213806092      PH        B1 (2)
  125    49           6.5302028616         177.6958537462      DE        A1 (1)
  126   207           6.5302028616         177.6958537463      DE        A2 (4)
  127   208           6.6371035467         180.6047692756      DE        A2 (4)
  128    50           6.6371035467         180.6047692756      DE        A1 (1)
  129   117           7.0342749415         191.4123523748      PI        B1 (2)
  130   169           7.0342749415         191.4123523748      PI        B2 (3)
  131    51           7.3409717481         199.7579967658     SG+        A1 (1)
  132   118           7.7849351535         211.8388552069      PI        B1 (2)
  133   170           7.7849351535         211.8388552069      PI        B2 (3)
  134    52           8.2953208257         225.7271554135     SG+        A1 (1)
  135    53           9.8518379457         268.0821395347     SG+        A1 (1)
  136   171          10.0103694514         272.3960011173      PI        B2 (3)
  137   119          10.0103694514         272.3960011173      PI        B1 (2)
  138   209          10.6228958381         289.0636914690      PI        A2 (4)
  139    54          10.6228958381         289.0636914690      PI        A1 (1)
  140   120          10.7769602088         293.2559961291      PH        B1 (2)
  141   172          10.7769602088         293.2559961291      PH        B2 (3)
  142    55          10.8016646005         293.9282368022     SG+        A1 (1)
  143    56          11.0108890897         299.6215245943      DE        A1 (1)
  144   210          11.0108890897         299.6215245944      DE        A2 (4)
  145   173          11.1085558328         302.2791717855      PI        B2 (3)
  146   121          11.1085558328         302.2791717855      PI        B1 (2)
  147    57          11.4235110210         310.8495381652     SG+        A1 (1)
  148   122          11.8659674893         322.8893907627      PH        B1 (2)
  149   174          11.8659674893         322.8893907627      PH        B2 (3)
  150    58          12.0852070956         328.8552037475      DE        A1 (1)
  151   211          12.0852070956         328.8552037480      DE        A2 (4)
  152   123          12.6066771557         343.0451254834      PI        B1 (2)
  153   175          12.6066771557         343.0451254834      PI        B2 (3)
  154    59          12.7701955883         347.4946882456      DE        A1 (1)
  155   212          12.7701955883         347.4946882457      DE        A2 (4)
  156    60          12.9343679670         351.9620457862     SG+        A1 (1)
  157   176          13.1836364615         358.7449863589      PI        B2 (3)
  158   124          13.1836364615         358.7449863589      PI        B1 (2)
  159    61          14.1199448425         384.2232326962     SG+        A1 (1)
  160    62          17.5757362370         478.2600972827     SG+        A1 (1)
  161   125          18.9476841754         515.5926986395      PI        B1 (2)
  162   177          18.9476841754         515.5926986396      PI        B2 (3)
  163    63          20.3923307098         554.9035293642     SG+        A1 (1)
  164    64          26.3517729093         717.0681959060      DE        A1 (1)
  165   213          26.3517729093         717.0681959061      DE        A2 (4)
  166   126          26.7732060812         728.5359755218      PI        B1 (2)
  167   178          26.7732060812         728.5359755218      PI        B2 (3)
  168    65          27.3286306226         743.6498456692     SG+        A1 (1)
  169   127          33.6592487462         915.9147225879      PI        B1 (2)
  170   179          33.6592487462         915.9147225880      PI        B2 (3)
  171    66          34.4195323069         936.6030900518     SG+        A1 (1)
  172    67          36.1011398358         982.3619572492     SG+        A1 (1)
  173    68          47.0821236995        1281.1697192737      DE        A1 (1)
  174   214          47.0821236995        1281.1697192737      DE        A2 (4)
  175   180          47.2909306727        1286.8516458774      PI        B2 (3)
  176   128          47.2909306727        1286.8516458775      PI        B1 (2)
  177    69          47.8780844822        1302.8289133019     SG+        A1 (1)
  178    70          63.9407121260        1739.9152325293     SG+        A1 (1)
  179   181          66.4844449142        1809.1337206959      PI        B2 (3)
  180   129          66.4844449142        1809.1337206959      PI        B1 (2)
  181    71          67.5253291381        1837.4576203881     SG+        A1 (1)
  182   130          98.5746033731        2682.3513258893      PH        B1 (2)
  183   182          98.5746033731        2682.3513258893      PH        B2 (3)
  184   215          98.5884790463        2682.7289021507      DE        A2 (4)
  185    72          98.5884790463        2682.7289021508      DE        A1 (1)
  186   183          98.6125497482        2683.3838992486      PI        B2 (3)
  187   131          98.6125497482        2683.3838992486      PI        B1 (2)
  188    73          98.6339100856        2683.9651435801     SG+        A1 (1)
  189   132         103.2883862728        2810.6198796374      PH        B1 (2)
  190   184         103.2883862728        2810.6198796374      PH        B2 (3)
  191   216         103.3081394241        2811.1573902102      DE        A2 (4)
  192    74         103.3081394241        2811.1573902103      DE        A1 (1)
  193   185         103.3523180951        2812.3595529652      PI        B2 (3)
  194   133         103.3523180951        2812.3595529652      PI        B1 (2)
  195    75         103.3579351462        2812.5124006966     SG+        A1 (1)
  196   217         115.0409151878        3130.4224498633      DE        A2 (4)
  197    76         115.0409151878        3130.4224498634      DE        A1 (1)
  198   134         115.2435084079        3135.9352916472      PI        B1 (2)
  199   186         115.2435084079        3135.9352916472      PI        B2 (3)
  200    77         115.5366026581        3143.9107916620     SG+        A1 (1)
  201   135         116.9285996129        3181.7889544907      PI        B1 (2)
  202   187         116.9285996129        3181.7889544908      PI        B2 (3)
  203    78         117.5507223411        3198.7177745711     SG+        A1 (1)
  204    79         122.2855663009        3327.5594288991     SG+        A1 (1)
  205    80         198.5536832666        5402.9204008493      DE        A1 (1)
  206   218         198.5536832666        5402.9204008494      DE        A2 (4)
  207   188         198.6656155657        5405.9662335553      PI        B2 (3)
  208   136         198.6656155657        5405.9662335557      PI        B1 (2)
  209    81         198.9737451905        5414.3508669126     SG+        A1 (1)
  210    82         216.4681939272        5890.3990188575     SG+        A1 (1)
  211   137         224.9412005380        6120.9612502969      PI        B1 (2)
  212   189         224.9412005380        6120.9612502969      PI        B2 (3)
  213    83         225.7548263190        6143.1011333666     SG+        A1 (1)
  214   190         395.4016820072       10759.4267661033      PI        B2 (3)
  215   138         395.4016820072       10759.4267661037      PI        B1 (2)
  216    84         395.9296845541       10773.7944458438     SG+        A1 (1)
  217    85         508.9086279152       13848.1077897692     SG+        A1 (1)
  218    86         895.3020567177       24362.4075241549     SG+        A1 (1)


  VSCF finished.

 @CHECKOUT-I, Total execution time (CPU/WALL):       48.69/      11.15 seconds.
--executable xvscf finished with status     0 in       11.18 seconds (walltime).
 --invoking executable--
/nfs/workspaces/public/cfour_mpi/bin/xvtran
 @GETMEM-I,  Allocated    3814 MB of main memory.
  Full RHF integral transformation
  Transformation of IIII integrals :
  1 pass through the AO integral file was required.
     4506327 AO integrals were read.
     8778229 MO integrals were written to HF2.
  Transformation of IIJJ integrals :
  1 pass through the AO integral file was required.
    10224506 AO integrals were read.
    14543420 MO integrals were written to HF2.
  Transformation of IJIJ integrals :
  1 pass through the AO integral file was required.
    19416400 AO integrals were read.
    27243351 MO integrals were written to HF2.
  Transformation of IJKL integrals :
  1 pass through the AO integral file was required.
    14375300 AO integrals were read.
    18424149 MO integrals were written to HF2.
  Summary of active molecular orbitals: 
------------------------------------------------------------------------
 
  Index      Eigenvalue    Symmetry    Index      Eigenvalue    Symmetry
------------------------------------------------------------------------
     1       -20.6628584        1       110         4.1267437        2
     2       -11.4570791        1       111         4.1732212        2
     3        -1.3770244        1       112         4.7640645        2
     4        -0.7929022        1       113         5.0327922        2
     5        -0.5638208        1       114         5.5234409        2
     6        -0.5539213        2       115         5.9683747        2
     7        -0.5539213        3       116         6.2351951        2
     8         0.0634257        1       117         6.3988434        2
     9         0.0702654        1       118         7.0342749        2
    10         0.1565027        1       119         7.7849352        2
    11         0.2261877        1       120        10.0103695        2
    12         0.2263851        1       121        10.7769602        2
    13         0.2995324        1       122        11.1085558        2
    14         0.3744389        1       123        11.8659675        2
    15         0.5075821        1       124        12.6066772        2
    16         0.5175313        1       125        13.1836365        2
    17         0.5456035        1       126        18.9476842        2
    18         0.7432682        1       127        26.7732061        2
    19         0.7550816        1       128        33.6592487        2
    20         0.8253042        1       129        47.2909307        2
    21         0.8677511        1       130        66.4844449        2
    22         0.8769119        1       131        98.5746034        2
    23         1.1235035        1       132        98.6125497        2
    24         1.4081427        1       133       103.2883863        2
    25         1.5572463        1       134       103.3523181        2
    26         1.6404796        1       135       115.2435084        2
    27         1.7252858        1       136       116.9285996        2
    28         1.8655694        1       137       198.6656156        2
    29         2.0210474        1       138       224.9412005        2
    30         2.0877357        1       139       395.4016820        2
    31         2.1553356        1       140         0.0396283        3
    32         2.2814858        1       141         0.0933790        3
    33         2.3230866        1       142         0.1709233        3
    34         2.5005365        1       143         0.3002380        3
    35         2.6397196        1       144         0.3980375        3
    36         2.8085487        1       145         0.6250822        3
    37         3.3056477        1       146         0.7419122        3
    38         3.7014055        1       147         0.7967268        3
    39         3.8993056        1       148         0.8972142        3
    40         4.2131257        1       149         1.0369609        3
    41         4.2170529        1       150         1.4309628        3
    42         4.2872941        1       151         1.5634215        3
    43         4.3893117        1       152         1.6579940        3
    44         4.9227296        1       153         2.0748128        3
    45         5.0096295        1       154         2.2297515        3
    46         5.3687122        1       155         2.2729165        3
    47         5.8638595        1       156         2.2797021        3
    48         6.1903270        1       157         2.5323773        3
    49         6.2070732        1       158         2.6652571        3
    50         6.3882623        1       159         3.6012560        3
    51         6.5302029        1       160         4.0423442        3
    52         6.6371035        1       161         4.1267437        3
    53         7.3409717        1       162         4.1732212        3
    54         8.2953208        1       163         4.7640645        3
    55         9.8518379        1       164         5.0327922        3
    56        10.6228958        1       165         5.5234409        3
    57        10.8016646        1       166         5.9683747        3
    58        11.0108891        1       167         6.2351951        3
    59        11.4235110        1       168         6.3988434        3
    60        12.0852071        1       169         7.0342749        3
    61        12.7701956        1       170         7.7849352        3
    62        12.9343680        1       171        10.0103695        3
    63        14.1199448        1       172        10.7769602        3
    64        17.5757362        1       173        11.1085558        3
    65        20.3923307        1       174        11.8659675        3
    66        26.3517729        1       175        12.6066772        3
    67        27.3286306        1       176        13.1836365        3
    68        34.4195323        1       177        18.9476842        3
    69        36.1011398        1       178        26.7732061        3
    70        47.0821237        1       179        33.6592487        3
    71        47.8780845        1       180        47.2909307        3
    72        63.9407121        1       181        66.4844449        3
    73        67.5253291        1       182        98.5746034        3
    74        98.5884790        1       183        98.6125497        3
    75        98.6339101        1       184       103.2883863        3
    76       103.3081394        1       185       103.3523181        3
    77       103.3579351        1       186       115.2435084        3
    78       115.0409152        1       187       116.9285996        3
    79       115.5366027        1       188       198.6656156        3
    80       117.5507223        1       189       224.9412005        3
    81       122.2855663        1       190       395.4016820        3
    82       198.5536833        1       191         0.2261877        4
    83       198.9737452        1       192         0.5456035        4
    84       216.4681939        1       193         0.7550816        4
    85       225.7548263        1       194         0.8769119        4
    86       395.9296846        1       195         1.5572463        4
    87       508.9086279        1       196         1.7252858        4
    88       895.3020567        1       197         2.0877357        4
    89         0.0396283        2       198         2.1553356        4
    90         0.0933790        2       199         2.3230866        4
    91         0.1709233        2       200         2.8085487        4
    92         0.3002380        2       201         3.7014055        4
    93         0.3980375        2       202         4.2170529        4
    94         0.6250822        2       203         4.2872941        4
    95         0.7419122        2       204         4.9227296        4
    96         0.7967268        2       205         5.8638595        4
    97         0.8972142        2       206         6.2070732        4
    98         1.0369609        2       207         6.5302029        4
    99         1.4309628        2       208         6.6371035        4
   100         1.5634215        2       209        10.6228958        4
   101         1.6579940        2       210        11.0108891        4
   102         2.0748128        2       211        12.0852071        4
   103         2.2297515        2       212        12.7701956        4
   104         2.2729165        2       213        26.3517729        4
   105         2.2797021        2       214        47.0821237        4
   106         2.5323773        2       215        98.5884790        4
   107         2.6652571        2       216       103.3081394        4
   108         3.6012560        2       217       115.0409152        4
   109         4.0423442        2       218       198.5536833        4
------------------------------------------------------------------------
  -20.6628584010387       -11.4570790851781       -1.37702444171302     
 -0.792902231414702      -0.563820800051133      -0.553921313477071     
 -0.553921313477044       6.342565196007617E-002  7.026544310139871E-002
  0.156502710291030       0.226187678048675       0.226385059620678     
  0.299532410192346       0.374438880211632       0.507582062463722     
  0.517531258128627       0.545603486040949       0.743268187114567     
  0.755081644032238       0.825304201002693       0.867751059686242     
  0.876911902786668        1.12350351454089        1.40814265489553     
   1.55724631161072        1.64047961500471        1.72528582201738     
   1.86556943521533        2.02104738257405        2.08773571066732     
   2.15533557906279        2.28148575136459        2.32308664606350     
   2.50053649135103        2.63971956789436        2.80854870541408     
   3.30564770136723        3.70140545257676        3.89930558702981     
   4.21312565168257        4.21705293638446        4.28729405929395     
   4.38931167606284        4.92272959874006        5.00962947045243     
   5.36871215637642        5.86385953225039        6.19032703600593     
   6.20707324666741        6.38826230682962        6.53020286158024     
   6.63710354673012        7.34097174808787        8.29532082567594     
   9.85183794568495        10.6228958381080        10.8016646004926     
   11.0108890896847        11.4235110209512        12.0852070956256     
   12.7701955882777        12.9343679669821        14.1199448425024     
   17.5757362370167        20.3923307098085        26.3517729093492     
   27.3286306226235        34.4195323069034        36.1011398358088     
[...]
 Convergence information after    12 iterations: 
 Largest element of residual vector : -0.27589520E-05.
 Largest element of DIIS residual   : -0.16079005E-05.
 Convergence information after    13 iterations: 
 Largest element of residual vector : -0.12938825E-05.
 Largest element of DIIS residual   : -0.61228024E-06.
 Convergence information after    14 iterations: 
 Largest element of residual vector : -0.73713110E-06.
 Largest element of DIIS residual   : -0.39565489E-06.
 Convergence information after    15 iterations: 
 Largest element of residual vector : -0.27421414E-06.
 Largest element of DIIS residual   : -0.16822555E-06.
 Convergence information after    16 iterations: 
 Largest element of residual vector : -0.16354942E-06.
 Largest element of DIIS residual   : -0.70871240E-07.
 Perturbed amplitude equations converged in    16 iterations.
  Dominant contributions to perturbed wavefunction:
    7    7  140   28  -0.2426982172 ABAB
    7    7   28  140  -0.2426982172 ABAB
    7    7  140   39  -0.2109395248 ABAB
    7    7   39  140  -0.2109395248 ABAB
    7    7  140   54  -0.1673506791 ABAB
    7    7   54  140  -0.1673506791 ABAB
    7    7  141   28  -0.1554185114 ABAB
    7    7   28  141  -0.1554185114 ABAB
    7    6   28   89  -0.1552919966 ABAB
    6    7   89   28  -0.1552919966 ABAB
    7    7  140   20  -0.1466155834 ABAB
    7    7   20  140  -0.1466155834 ABAB
    7    7  141   39  -0.1399219099 ABAB
    7    7   39  141  -0.1399219099 ABAB
    7    7  140   45   0.1360554735 ABAB
    7    7   45  140   0.1360554735 ABAB
    7    6   39   89  -0.1354731281 ABAB
    6    7   89   39  -0.1354731281 ABAB
    7    7  140   21  -0.1277912578 ABAB
    7    7   21  140  -0.1277912578 ABAB
  norm of converged amps    1.95646083353449     
 Starting iterative solution of the perturbed Lambda equations.
 The DIIS procedure is used to accelerate convergence.
 Convergence criterion is 10**(-7).
 Maximum number of iterations is 100.
 Convergence information after     1 iterations: 
 Largest element of residual vector :  0.62242330E-01.
 Largest element of DIIS residual   :  0.62242330E-01.
 Convergence information after     2 iterations: 
 Largest element of residual vector : -0.12960234E-01.
 Largest element of DIIS residual   :  0.81302886E-02.
 Convergence information after     3 iterations: 
 Largest element of residual vector :  0.53133037E-02.
 Largest element of DIIS residual   :  0.47998889E-02.
 Convergence information after     4 iterations: 
 Largest element of residual vector :  0.33854831E-02.
 Largest element of DIIS residual   :  0.29443540E-02.
 Convergence information after     5 iterations: 
 Largest element of residual vector :  0.24031087E-02.
 Largest element of DIIS residual   :  0.14092284E-02.
 Convergence information after     6 iterations: 
 Largest element of residual vector :  0.96426049E-03.
 Largest element of DIIS residual   :  0.38955295E-03.
 Convergence information after     7 iterations: 
 Largest element of residual vector :  0.37167049E-03.
 Largest element of DIIS residual   : -0.13081566E-03.
 Convergence information after     8 iterations: 
 Largest element of residual vector :  0.85296412E-04.
 Largest element of DIIS residual   :  0.57372791E-04.
 Convergence information after     9 iterations: 
 Largest element of residual vector :  0.35262489E-04.
 Largest element of DIIS residual   :  0.11236098E-04.
 Convergence information after    10 iterations: 
 Largest element of residual vector :  0.86510244E-05.
 Largest element of DIIS residual   : -0.57793814E-05.
 Convergence information after    11 iterations: 
 Largest element of residual vector : -0.33023123E-05.
 Largest element of DIIS residual   : -0.19735887E-05.
 Convergence information after    12 iterations: 
 Largest element of residual vector : -0.20267375E-05.
 Largest element of DIIS residual   : -0.15950235E-05.
 Convergence information after    13 iterations: 
 Largest element of residual vector : -0.11706033E-05.
 Largest element of DIIS residual   : -0.84201234E-06.
 Convergence information after    14 iterations: 
 Largest element of residual vector : -0.82755439E-06.
 Largest element of DIIS residual   : -0.58949923E-06.
 Convergence information after    15 iterations: 
 Largest element of residual vector : -0.40701540E-06.
 Largest element of DIIS residual   : -0.25174168E-06.
 Convergence information after    16 iterations: 
 Largest element of residual vector : -0.22897156E-06.
 Largest element of DIIS residual   : -0.96891593E-07.
 Perturbed Lambda equations converged in    16 iterations.
  Dominant contributions to perturbed wavefunction:
    7    7  140   28  -0.2205396272 ABAB
    7    7   28  140  -0.2205396272 ABAB
    7    7  140   39  -0.1895097918 ABAB
    7    7   39  140  -0.1895097918 ABAB
    7    7  140   54  -0.1534894626 ABAB
    7    7   54  140  -0.1534894626 ABAB
    7    7  141   28  -0.1398937118 ABAB
    7    7   28  141  -0.1398937118 ABAB
    7    6   28   89  -0.1386221512 ABAB
    6    7   89   28  -0.1386221512 ABAB
    7    7  140   20  -0.1306442006 ABAB
    7    7   20  140  -0.1306442006 ABAB
    7    7  141   39  -0.1245459176 ABAB
    7    7   39  141  -0.1245459176 ABAB
    7    7  140   45   0.1217479467 ABAB
    7    7   45  140   0.1217479467 ABAB
    7    6   39   89  -0.1196014685 ABAB
    6    7   89   39  -0.1196014685 ABAB
    7    7  140   21  -0.1157011746 ABAB
    7    7   21  140  -0.1157011746 ABAB
        The DBOC first-order density matrix is being calculated 
             (Symmetry block 3, perturbation   2)
 term   4.28625425278034     
 final tnorm  0.852398029877382     
  norm contr. I: |<0|L dT/dx|0>|^2   0.000000000000000E+000
  norm contr. II: <0|[nabla(1+L)e-T][nabla e^T]|0>   4.28625425278034     
  total norm contribution   4.28625425278034     
 oo  7.287544150694426E-003
 vv  -28.5501699986610     
 vo  6.284574845951500E-002
  Correlated perturbed 1-el contribution to DBOC  -28.4800367060508       cm**-1
  SUM_I |dc_I/dx|^2 contribution to DBOC   14.3392296681578       cm**-1
 
 
  The total diagonal Born-Oppenheimer correction (DBOC) is:      0.0038677358 a.u.
  The total diagonal Born-Oppenheimer correction (DBOC) is:        848.869896 cm-1
 
 Total CC energy including DBOC  -113.200276175828     
 First-order density matrix is being calculated  (Symmetry block 3, perturbation   2)
 Calculation of the contributions of <pq||rs> to dI(i,j)/dx required   4.5 seconds.
 Calculation of the contributions of <pq||rs> to dI(a,b)/dx required  15.3 seconds.
 Calculation of the contributions of <pq||rs> to dI(i,a)/dx required   9.2 seconds.
 First-order Z-vector equations are solved for 1 perturbation.
 Convergence reached after  19 iterations.
        U*G(pq,rs) contribution is being calculated
             (Symmetry block 3, perturbation   2)

 CCSD contribution to force constants 

        0.0000000000        0.0000000000        0.0000000000
        0.0000000000        0.0000000000        0.0000000000
        0.0000000000        0.0000000000        0.0000000000
        0.0000000000        0.0000000000        0.0000000000
        0.0000000000        0.0000000000        0.0000000000
        0.0000000000        0.0000000000        0.0000000000
        0.0000000000        0.0000000000        0.0000000000
        0.0000000000        0.0000000000        0.0000000000
        0.0000000000        0.0000000000        0.0000000000
        0.0000000000        0.0000000000        0.0000000000
        0.0000000000        0.0000000000        0.0000000000
        0.0000000000        0.7854000019       -0.7854000019

 CCSD contribution to dipole derivatives 

        0.0000000000        0.0000000000        0.0000000000
        0.0000000000        0.0000000000        0.0000000000
        0.0000000000        0.0000000000        0.0000000000
        0.0000000000        0.0000000000       -0.0534482564
        0.0000000000        0.0000000000        0.0000000000
        0.0000000000        0.0000000000        0.0000000000
 @CHECKOUT-I, Total execution time (CPU/WALL):     1262.28/     484.95 seconds.
--executable xsdcc finished with status     0 in      485.14 seconds (walltime).
 --invoking executable--
/nfs/workspaces/public/cfour_mpi/bin/xanti
 @GETMEM-I,  Allocated    3814 MB of main memory.
 CCSD MO derivative gammas will be sorted to Mulliken order.
 @CHECKOUT-I, Total execution time (CPU/WALL):       11.72/      26.86 seconds.
--executable xanti finished with status     0 in       26.99 seconds (walltime).
 --invoking executable--
/nfs/workspaces/public/cfour_mpi/bin/xbcktrn
 @GETMEM-I,  Allocated    3814 MB of main memory.
 CCSD MO derivative gammas will be transformed to the AO basis.
 @CHECKOUT-I, Total execution time (CPU/WALL):       23.66/       3.45 seconds.
--executable xbcktrn finished with status     0 in        3.51 seconds (walltime).
 --invoking executable--
/nfs/workspaces/public/cfour_mpi/bin/xvdint
 @GETMEM-I,  Allocated    3814 MB of main memory.
 One- and two-electron integral derivatives are calculated
 for RHF-CC/MBPT hessians and dipole derivatives.
 Spherical gaussians are used.
  magnet F F
                    8722  records have been written to the Sort file.
  Total length of Sort file :             178609116  words.
 Evaluation of 2el integral derivatives

                      Two-electron integral gradient
                      ------------------------------

                         C #1 z     0.0000000000
                         O #2 z     0.0000000000


 C #1       0.0000000000           -0.1008121665            0.0000000000
 O #2       0.0000000000            0.1008121665            0.0000000000


 Evaluation of 2e integral derivatives required  348.80 seconds.
  contribution to Hessian
        0.0000000000        0.0000000000        0.0000000000
        0.0000000000       -0.1008121665        0.1008121665
 @CHECKOUT-I, Total execution time (CPU/WALL):      348.80/      72.57 seconds.
--executable xvdint finished with status     0 in       72.72 seconds (walltime).
 --invoking executable--
/nfs/workspaces/public/cfour_mpi/bin/xanti
 @GETMEM-I,  Allocated    3814 MB of main memory.
 CCSD MO gammas will be sorted to Mulliken order.
 @CHECKOUT-I, Total execution time (CPU/WALL):       15.78/      55.25 seconds.
--executable xanti finished with status     0 in       56.23 seconds (walltime).
 --invoking executable--
/nfs/workspaces/public/cfour_mpi/bin/xbcktrn
 @GETMEM-I,  Allocated    3814 MB of main memory.
 CCSD MO gammas will be transformed to the AO basis.
 @CHECKOUT-I, Total execution time (CPU/WALL):       36.55/      17.97 seconds.
--executable xbcktrn finished with status     0 in       18.03 seconds (walltime).
 --invoking executable--
/nfs/workspaces/public/cfour_mpi/bin/xvdint
 @GETMEM-I,  Allocated    3814 MB of main memory.
 One- and two-electron integral derivatives are calculated
 for RHF-CC/MBPT hessians and dipole derivatives.
 Spherical gaussians are used.
  magnet F F

                     Kinetic energy integral gradient
                     --------------------------------

                         C #1 z    -0.8876210204
                         O #2 z     0.8876210204


 C #1       0.0000000000            0.0000000000           -0.8876210204
 O #2       0.0000000000            0.0000000000            0.8876210204



                   Nuclear attraction integral gradient
                   ------------------------------------

                         C #1 z    17.8350216909
                         O #2 z   -17.8350216909


 C #1       0.0000000000            0.0000000000           17.8350216909
 O #2       0.0000000000            0.0000000000          -17.8350216909



                      Reorthonormalization gradient
                      -----------------------------

                         C #1 z     0.0000000000
                         O #2 z     0.0000000000


 C #1       0.0000000000            0.0000000000            0.0000000000
 O #2       0.0000000000            0.0000000000            0.0000000000



                     Kinetic energy integral Hessian
                     -------------------------------


           Symmetry 1

           C #1 z      O #2 z

 C #1 z    0.871983
 O #2 z   -0.871983    0.871983


           Symmetry 2

           C #1 x      O #2 x

 C #1 x   -0.862707
 O #2 x    0.862707   -0.862707


           Symmetry 3

           C #1 y      O #2 y

 C #1 y   -0.862707
 O #2 y    0.862707   -0.862707




           C #1 x      C #1 y      C #1 z      O #2 x      O #2 y      O #2 z

 C #1 x   -0.862707
 C #1 y    0.000000   -0.862707
 C #1 z    0.000000    0.000000    0.871983

 O #2 x    0.862707    0.000000    0.000000   -0.862707
 O #2 y    0.000000    0.862707    0.000000    0.000000   -0.862707
 O #2 z    0.000000    0.000000   -0.871983    0.000000    0.000000    0.871983




                   Nuclear attraction integral Hessian
                   -----------------------------------


           Symmetry 1

           C #1 z      O #2 z

 C #1 z  -11.029642
 O #2 z   11.029642  -11.029642


           Symmetry 2

           C #1 x      O #2 x

 C #1 x   11.983636
 O #2 x  -11.983636   11.983636


           Symmetry 3

           C #1 y      O #2 y

 C #1 y   11.983636
 O #2 y  -11.983636   11.983636




           C #1 x      C #1 y      C #1 z      O #2 x      O #2 y      O #2 z

 C #1 x   11.983636
 C #1 y    0.000000   11.983636
 C #1 z    0.000000    0.000000  -11.029642

 O #2 x  -11.983636    0.000000    0.000000   11.983636
 O #2 y    0.000000  -11.983636    0.000000    0.000000   11.983636
 O #2 z    0.000000    0.000000   11.029642    0.000000    0.000000  -11.029642




                Highest order reorthonormalization Hessian
                ------------------------------------------


           Symmetry 1

           C #1 z      O #2 z

 C #1 z    0.000000
 O #2 z    0.000000    0.000000


           Symmetry 2

           C #1 x      O #2 x

 C #1 x    0.000000
 O #2 x    0.000000    0.000000


           Symmetry 3

           C #1 y      O #2 y

 C #1 y    0.000000
 O #2 y    0.000000    0.000000




           C #1 x      C #1 y      C #1 z      O #2 x      O #2 y      O #2 z




                Electronic contributions to dipole moment
                -----------------------------------------

                               au             Debye

                    z     -0.78503184     -1.99535227

  Conversion factor used: 1 a.u. =   2.54174691 Debye 



   Electronic contributions to static part of dipole moment derivatives
   --------------------------------------------------------------------


                     Total dipole moment derivatives
                     -------------------------------


           Symmetry 1
                              Ez

               C #1 z    -5.62076728
               O #2 z    -8.37923272

           Symmetry 2
                              Ex

               C #1 x    -5.68627287
               O #2 x    -8.31372713

           Symmetry 3
                              Ey

               C #1 y    -5.68627287
               O #2 y    -8.31372713



                       Ex          Ey          Ez

      C #1    x   -5.686273    0.000000    0.000000
      C #1    y    0.000000   -5.686273    0.000000
      C #1    z    0.000000    0.000000   -5.620767

      O #2    x   -8.313727    0.000000    0.000000
      O #2    y    0.000000   -8.313727    0.000000
      O #2    z    0.000000    0.000000   -8.379233

 Evaluation of 1e integral derivatives required    1.69 seconds.
                    8815  records have been written to the Sort file.
  Total length of Sort file :             180513570  words.
 Evaluation of 2el integral derivatives

                      Two-electron integral gradient
                      ------------------------------

                         C #1 z    -9.0637451576
                         O #2 z     9.0637451576


 C #1       0.0000000000            0.0000000000           -9.0637451576
 O #2       0.0000000000            0.0000000000            9.0637451576


 Evaluation of 2e integral derivatives required  702.14 seconds.

                            Molecular gradient
                            ------------------

                         C #1 z     0.6750884158
                         O #2 z    -0.6750884158


 C #1       0.0000000000            0.0000000000            0.6750884158
 O #2       0.0000000000            0.0000000000           -0.6750884158


  Molecular gradient norm 0.955E+00

                            Molecular hessian
                            -----------------


           Symmetry 1

           C #1 z      O #2 z

 C #1 z   34.069822
 O #2 z  -34.069822   34.069822


           Symmetry 2

           C #1 x      O #2 x

 C #1 x   -0.395516
 O #2 x    0.395516   -0.395516


           Symmetry 3

           C #1 y      O #2 y

 C #1 y   -0.395516
 O #2 y    0.395516   -0.395516




           C #1 x      C #1 y      C #1 z      O #2 x      O #2 y      O #2 z

 C #1 x   -0.395516
 C #1 y    0.000000   -0.395516
 C #1 z    0.000000    0.000000   34.069822

 O #2 x    0.395516    0.000000    0.000000   -0.395516
 O #2 y    0.000000    0.395516    0.000000    0.000000   -0.395516
 O #2 z    0.000000    0.000000  -34.069822    0.000000    0.000000   34.069822




                           Total dipole moment
                           -------------------

                               au             Debye

                    z      0.24674533      0.62716419

  Conversion factor used: 1 a.u. =   2.54174691 Debye 



                     Total dipole moment derivatives
                     -------------------------------


           Symmetry 1
                              Ez

               C #1 z     0.68454151
               O #2 z    -0.68454151

           Symmetry 2
                              Ex

               C #1 x     0.09617764
               O #2 x    -0.09617764

           Symmetry 3
                              Ey

               C #1 y     0.09617764
               O #2 y    -0.09617764



                       Ex          Ey          Ez

      C #1    x    0.096178    0.000000    0.000000
      C #1    y    0.000000    0.096178    0.000000
      C #1    z    0.000000    0.000000    0.684542

      O #2    x   -0.096178    0.000000    0.000000
      O #2    y    0.000000   -0.096178    0.000000
      O #2    z    0.000000    0.000000   -0.684542

 @CHECKOUT-I, Total execution time (CPU/WALL):      703.81/     120.56 seconds.
--executable xvdint finished with status     0 in      120.73 seconds (walltime).
 --invoking executable--
/nfs/workspaces/public/cfour_mpi/bin/xjoda
  @GTFLGS-I, Hessian will be transformed to curvilinear coordinates.
  @GTFLGS-I, Hessian will be transformed to curvilinear coordinates.
  igrd and ihes are                      0                     1
  gradient from JOBARC 
   0.000000000000000   0.000000000000000   0.675088415820399
   0.000000000000000   0.000000000000000  -0.675088415820399
 
  @PROJFCM-I, Projecting force constant matrix onto totally symmetric subspace.
  Largest difference between matrix elements of symmetrized
  and unsymmetrized FCM :     0.4609757021E-11.
  read isotopes from ZMAT file 
 
  Summary of diagonal Born-Oppenheimer correction at the correlated level
  The total diagonal Born-Oppenheimer correction (DBOC) is:      0.0038677358 a.u.
  The total diagonal Born-Oppenheimer correction (DBOC) is:        848.869896 cm-1
  The total diagonal Born-Oppenheimer correction (DBOC) is:            10.155 kJ/mole
  hellooooooo 
  readis is  F
 
 @CHECKOUT-I, Total execution time (CPU/WALL):        0.01/       0.10 seconds.
--executable xjoda finished with status     0 in        0.13 seconds (walltime).
  The final electronic energy is      -113.200276175827909 a.u. 
  This computation required                         4351.61 seconds (walltime).
