 --invoking executable--
/nfs/workspaces/public/cfour_mpi/bin/xjoda


   *************************************************************************
         <<<     CCCCCC     CCCCCC   |||     CCCCCC     CCCCCC   >>>
       <<<      CCC        CCC       |||    CCC        CCC         >>>
      <<<      CCC        CCC        |||   CCC        CCC            >>>
    <<<        CCC        CCC        |||   CCC        CCC              >>>
      <<<      CCC        CCC        |||   CCC        CCC            >>>
       <<<      CCC        CCC       |||    CCC        CCC         >>>
         <<<     CCCCCC     CCCCCC   |||     CCCCCC     CCCCCC   >>>
   *************************************************************************

     ****************************************************************
     * CFOUR Coupled-Cluster techniques for Computational Chemistry *
     ****************************************************************
 

   Department of Chemistry                Institut fuer Physikalische Chemie
   University of Florida                  Universitaet Mainz
   Gainesville, FL 32611, USA             D-55099 Mainz, Germany

   Department of Chemistry                Fakultaet fuer Chemie und Biowiss.
   Johns Hopkins University               Karlsruher Institut fuer Technologie
   Baltimore, MD 21218, USA               D-76131 Karlsruhe, Germany

   Department of Chemistry                Department of Physical Chemistry
   Southern Methodist University          Eotvos Lorand University
   Dallas, TX 75275, USA                  H-1053 Budapest, Hungary

 
                       Version 2.1
 
                     vincent.theory.phys.ucl.ac.uk                     
                     Sun  2 Mar 08:24:03 GMT 2025                      
                     integer*8 version is running
 
********************************************************************************
*                          Input from ZMAT file                                *
********************************************************************************
Carbon Monoxide DBOC calculation                                                
C                                                                               
O 1 r                                                                           
                                                                                
r=1.2724137931034483                                                            
                                                                                
                                                                                
*CFOUR(CALC=CCSD,BASIS=AUG-PCVQZ,SCF_CONV=10                                    
CC_CONV=14,DBOC=ON,MEMORY=500000000                                             
ZFIELD=200)                                                                     
                                                                                
%isotopes                                                                       
12                                                                              
18                                                                              
********************************************************************************
  @GTFLGS-I, Hessian will be transformed to curvilinear coordinates.
    -------------------------------------------------------------------
                    CFOUR Control Parameters 
    -------------------------------------------------------------------
        External           Internal           Value            Units
          Name               Name
    -------------------------------------------------------------------
       ABCDTYPE             IABCDT         STANDARD    [  0]    ***   
       ANHARMONIC           IANHAR         OFF         [  0]    ***   
       ANH_ALGORIT          IANALG         STANDARD    [  0]    ***   
       ANH_DERIVAT          IANDER         SECOND      [  1]    ***   
       ANH_MODE             ANHMOD         VIBRATION   [  0]    ***   
       ANH_STEPSIZ          ICUBST             50000          x 10-6  
       ANH_SYMMETR          IANHSM         ABELIAN     [  0]    ***   
       AO_LADDERS           IAOLAD         SINGLEPASS  [  1]    ***   
       AV_SCF               IAVSCF         OFF         [  0]    ***   
       BASIS                IBASIS         AUG-PCVQZ   [ 52]    ***   
       BOTHVECTORS          BOTHVC         OFF         [  0]    ***   
       BOX_POTENT           IPIAB          OFF         [  0]    ***   
       BREIT                IBREIT         OFF         [  0]    ***   
       BRUCK_CONV           IBRTOL          10D-  4             ***   
       BRUECKNER            IBRKNR         OFF         [  0]    ***   
       BUFFERSIZE           IBUFFS              4096            ***   
       CACHE_RECS           ICHREC             10               ***   
       CALCLEVEL            ICLLVL         CCSD        [ 10]    ***   
       CCORBOPT             ICCORB         OFF         [  0]  x 0.01  
       CC_CONV              ICCCNV          10D- 14             ***   
       CC_EXPORDER          ICCEOR              5               ***   
       CC_EXTRAPOL          ICCEXT         DIIS        [  1]    ***   
       CC_GUESS             ICCGES         MP2         [  0]    ***   
       CC_MAXCYC            ICCCYC            100              cycles 
       CC_PROGRAM           ICCPRO         VCC         [  0]    ***   
       CHARGE               ICHRGE              0               ***   
       CHOLESKY             ICHOLE         OFF         [  0]    ***   
       CIS_CONV             ICISTL              5               ***   
       COMM_SIZE            IPSIZE            ***               ***   
       CONSTANT             ICONST         OLD         [  1]    ***   
       CONTINUUM            ICONTU         NONE        [  0]    ***   
       CONTRACTION          ICNTYP         GENERAL     [  1]    ***   
       COORDINATES          ICOORD         INTERNAL    [  0]    ***   
       CPHF_CONVER          ICPHFT          10D- 16             ***   
       CPHF_MAXCYC          ICPHFC             64              cycles 
       CUBIC                ICUBIC         OFF         [  0]    ***   
       CURVILINEAR          ICURVY         ON          [  1]    ***   
       DBOC                 IDBOC          ON          [  1]    ***   
       DCT                  IDCT           OFF         [  0]    ***   
       DERIV_LEV            IDRLVL         SECOND      [  2]    ***   
       DEVMEM_SIZE          IDVMEM          50000000           MByte  
       DIAG_MRCC            IEOMST          10D-  0             ***   
       DIFF_TYPE            IDIFTY         RELAXED     [  0]    ***   
       DIRECT               IDIRCT         OFF         [  0]    ***   
       DROPMO               IDRPMO      NONE         
       ECP                  IECP           OFF         [  0]    ***   
       EIGENVECTOR          IVEC                1               ***   
       EL_ANHARM            IELANH         OFF         [  0]    ***   
       EOMFOLLOW            IEOMSR         ENERGY      [  0]    ***   
       EOMIP                IEOMIP         OFF         [  0]    ***   
       EOMLEVEL             HBARFM         SAME        [  0]    ***   
       EOM_MRCC             IMRCCE         NEW         [  1]    ***   
       EOM_NONIT            EOMNON         OFF         [  0]    ***   
       EOM_NSING            IEOMSI          10D-  0             ***   
       EOM_NSTATES          IMRCCD         DAVIDSON    [  0]    ***   
       EOM_NTRIP            IEOMTR          10D-  0             ***   
       EOM_ORDER            IEXORD         ENERGY      [  0]    ***   
       EOM_PROPSTA          IEOMST              0               ***   
       ESTATE_CONV          IEXTOL          10D-  5             ***   
       ESTATE_DIAG          IEXDIG         ITERATIVE   [  0]    ***   
       ESTATE_LOCK          IESLOC         ON          [  1]    ***   
       ESTATE_MAXC          IEXMXC             40               ***   
       ESTATE_PROP          IEXPRP         OFF         [  0]    ***   
       EVAL_HESS            IRECAL              0            # of cyc.
       EXCITATION           IEXCIT              0               ***   
       EXCITE               IEXCIT         NONE        [  0]    ***   
       EXTERN_POT           IEXPOT         OFF         [  0]    ***   
       FCGRADNEW            IFCGNW         OFF         [  0]    ***   
       FC_FIELD             IFINFC              0             x 10-6  
       FD_CALTYPE           IFDCAL         GRADONLY    [  0]    ***   
       FD_PROJECT           IFDPRJ         OFF         [  1]    ***   
       FD_STEPSIZE          IDISFD              0            10-4 bohr
       FD_USEGROUP          IFDGRP         FULL        [  0]    ***   
       FILE_RECSIZ          IFLREC              4096           words  
       FINITE_PERT          IFIPER              0             x 10-6  
       FIXGEOM              IFIXGM         OFF         [  0]    ***   
       FOCK                 IFOCK          AO          [  1]    ***   
       FREQ_ALGORI          IVIALG         STANDARD    [  0]    ***   
       FROZEN_CORE          IFROCO         OFF         [  0]    ***   
       GAMMA_ABCD           IGABCD         STORE       [  0]    ***   
       GAMMA_ABCI           IGABCI         STORE       [  0]    ***   
       GENBAS_1             IGNBS1              0               ***   
       GENBAS_2             IGNBS2              0               ***   
       GENBAS_3             IGNBS3              0               ***   
       GENBAS_4             IGNBS4              0               ***   
       GEO_CONV             ICONTL              5              H/bohr 
       GEO_MAXCYC           IOPTCY             50               ***   
       GEO_MAXSTEP          IMXSTP            300            millibohr
       GEO_METHOD           INR            SINGLE_POINT[  5]    ***   
       GIAO                 IGIAO          OFF         [  1]    ***   
       GIMIC                IGIMIC         OFF         [  0]    ***   
       GRID                 IGRID          OFF         [  0]    ***   
       GRID_ALGO            IGALGO         SERIAL      [  0]    ***   
       GUESS                IGUESS         MOREAD      [  0]    ***   
       HBAR                 IHBAR          OFF         [  0]    ***   
       HESS_TYPE            IHESTP         SCF         [  0]    ***   
       HF2_FILE             IHF2Fl         USE         [  1]    ***   
       HFSTABILITY          ISTABL         OFF         [  0]    ***   
       INCORE               INCORE         OFF         [  0]    ***   
       INPUT_MRCC           IMRCC          ON          [  1]    ***   
       INTEGRALS            INTTYP         VMOL        [  1]    ***   
       JODA_PRINT           IJPRNT              0               ***   
       KEYWORD_OUT          IDMPKW         NO          [  0]    ***   
       LINDEP_TOL           ILINDP              8               ***   
       LINEQ_CONV           IZTACN          10D-  7           cycles  
       LINEQ_EXPOR          ILMAXD              5               ***   
       LINEQ_MAXCY          ILMAXC            100               ***   
       LINEQ_TYPE           ILTYPE         DIIS        [  1]    ***   
       LOCK_ORBOCC          ILOCOC         OFF         [  0]    ***   
       MEMORY_SIZE          IMEMSZ         500000000           words  
       MEM_UNIT             IMEMU          INTEGERWORDS[  0]    ***   
       MRCC                 IMRCCC         OFF         [  0]    ***   
       MULTIPLICTY          IMULTP              1               ***   
       NACOUPLING           IVCOUP         OFF         [  0]    ***   
       NEGEVAL              IDIE           ABORT       [  0]    ***   
       NEWNORM              INEWNO         OFF         [  0]    ***   
       NON-HF               INONHF         OFF         [  0]    ***   
       NTOP_TAMP            ITOPT2             15               ***   
       NUC_MODEL            INUCMO         POINT       [  0]    ***   
       OCCUPATION           IOCCU   ESTIMATED BY SCF 
       OPEN-SHELL           IOPEN          SPIN-ORBITAL[  0]    ***   
       OPTVIB               IOPTVB         OFF         [  0]    ***   
       ORBITALS             IORBTP         STANDARD    [  0]    ***   
       PARALLEL             IPARAL         ON          [  1]    ***   
       PARA_INT             IPINTS         ON          [  1]    ***   
       PARA_PRINT           IPPRIN              0               ***   
       PERT_ORB             IPTORB         STANDARD    [  0]    ***   
       POINTS               IGRDFD              0               ***   
       PRINT                IPRNT               0               ***   
       PROPS                IPROPS         OFF         [  0]    ***   
       PROP_INTEGR          IINTYP         INTERNAL    [  0]    ***   
       PSI                  IPSI           OFF         [  0]    ***   
       QC_ALG               IQCALG         FLM         [  0]    ***   
       QC_LINALG            IQCLIN         TRIDIAG     [  2]    ***   
       QC_MAXCYC            IQCMAX          10D-100           cycles  
       QC_MAXSCFCY          IQCMSC          10D- 15           cycles  
       QC_RTRUST            IQCRTR          10D-  0           x 10-3  
       QC_SKIPSCF           IQCSKI         OFF         [  0]    ***   
       QC_START             IQCSTA          10D-  1             ***   
       QRHFGUESS            IQGUES         OFF         [  0]    ***   
       QUARTIC              IQUART         OFF         [  0]    ***   
       RAMAN_INT            IRAMIN         OFF         [  0]    ***   
       RAMAN_ORB            IRAMRE         UNRELAXED   [  0]    ***   
       RDO                  IRDOFM         ON          [  1]    ***   
       REDUCE_REPR          REDREP         Ir          [  0]    ***   
       REFERENCE            IREFNC         RHF         [  0]    ***   
       RELATIVIST           IRELAT         OFF         [  0]    ***   
       RELAX_DENS           IRDENS         ON          [  1]    ***   
       RESET_FLAGS          IRESET         OFF         [  0]    ***   
       RESTART_CC           ICCRES         OFF         [  0]    ***   
       ROT_EVEC             ROTVEC              0               ***   
       SAVE_INTS            ISVINT         OFF         [  0]    ***   
       SCALE_ON             ISTCRT              0               ***   
       SCF_CONV             ISCFCV          10D- 10             ***   
       SCF_DAMPING          IDAMP               0             x 10-3  
       SCF_EXPORDE          IRPPOR              6               ***   
       SCF_EXPSTAR          IRPPLS              8               ***   
       SCF_EXTRAPO          IRPP           ON          [  1]    ***   
       SCF_MAXCYC           ISCFCY            150              cycles 
       SCF_NOSTOP           ISCFST         OFF         [  0]    ***   
       SCF_PRINT            ISCFPR              0               ***   
       SCF_PROG             ISCFPR         SCF         [  0]    ***   
       SD_FIELD             IFINSD              0             x 10-6  
       SOPERT               IPERSO         OFF         [  0]    ***   
       SPHERICAL            IDFGHI         ON          [  1]    ***   
       SPINORBIT            ISOCAL         OFF         [  0]    ***   
       SPINROTATIO          ISRCON         OFF         [  0]    ***   
       SPIN_FLIP            ISPFLP         OFF         [  0]    ***   
       SPIN_ORBIT           ISPORB         OFF         [  0]    ***   
       SPIN_SCAL            ISCSMP         OFF         [  0]    ***   
       STEEPSCALE           ISTPSC              1000          x 10-3  
       SUBGROUP             ISUBGP         DEFAULT     [  0]    ***   
       SUBGRPAXIS           ISBXYZ         X           [  0]    ***   
       SYMMETRY             ISYM           ON          [  0]    ***   
       SYM_CHECK            ISYMCK         OVERRIDE    [  1]    ***   
       T3_EXTRAPOL          IT3EXT         OFF         [  0]    ***   
       T4_EXTRAPOL          IT4EXP         OFF         [  0]    ***   
       TAMP_SUM             IEVERY              5               ***   
       TESTSUITE            ITESTS         OFF         [  0]    ***   
       THERMOCH             ITHERM         OFF         [  0]    ***   
       TOL_CHOLESK          ITOLCH          10D-  4             ***   
       TRANGRAD             IRESRM         OFF         [  0]    ***   
       TRANS_INV            ITRAIN         IGNORE      [  1]    ***   
       TREAT_PERT           ITREAT         SIMULTANEOUS[  0]    ***   
       TRIP_ALGORI          ITRALG         NORMAL      [  0]    ***   
       UIJ_THRESHO          IUIJTH              1               ***   
       UNITS                IUNITS         ANGSTROM    [  0]    ***   
       UNOS                 IUNOS          OFF         [  0]    ***   
       UPDATE_HESS          IHUPDT         ON          [  1]    ***   
       VIBPHASE             ISETPH         STANDARD    [  0]    ***   
       VIBRATION            IVIB           ANALYTIC    [  1]    ***   
       VIB_ALGORIT          IGEALG         STANDARD    [  0]    ***   
       VNATORB              IVNORB         OFF         [  0]    ***   
       VTRAN                IVTRAN         FULL/PARTIAL[  0]    ***   
       XFIELD               IXEFLD              0             x 10-6  
       XFORM_TOL            IXFTOL          10D- 11             ***   
       YFIELD               IYEFLD              0             x 10-6  
       ZFIELD               IZEFLD            200             x 10-6  
       ZSCALE_EXP           IZEXPS         OFF         [  0]    ***   
    -------------------------------------------------------------------
   2 entries found in Z-matrix 
   Job Title : Carbon Monoxide DBOC calculation                                                
   There are  1 unique internal coordinates.
   Of these,  0 will be optimized.
   User supplied Z-matrix: 
--------------------------------------------------------------------------------
       SYMBOL    BOND      LENGTH    ANGLE     ANGLE     DIHED     ANGLE
                  TO      (ANGST)    WRT      (DEG)      WRT      (DEG)
--------------------------------------------------------------------------------
        C    
        O          1         r    
                  *Initial values for internal coordinates* 
                      Name             Value
                        r               1.2724137931
--------------------------------------------------------------------------------
  read isotopes from ZMAT file 
   Rotational constants (in cm-1): 
          1.4461569413             1.4461569413
   Rotational constants (in MHz): 
      43354.7004815218         43354.7004815218
********************************************************************************
   The full molecular point group is CXv .
   The largest Abelian subgroup of the full molecular point group is C2v .
   The computational point group is C2v .
********************************************************************************
--------------------------------------------------------------------------------
   Analysis of internal coordinates specified by Z-matrix 
--------------------------------------------------------------------------------
   *The nuclear repulsion energy is   19.962453203252029 a.u.
   *There is   1 degree of freedom within the tot. symm. molecular subspace.
   *Z-matrix requests optimization of   0 coordinates.
   *The optimization is constrained.
   *The following   1 parameters can have non-zero 
    derivatives within the totally symmetric subspace:
             r    [ 1]
   *The following   0 parameters are to be optimized:

   *The following coordinates must be varied in an  unconstrained optimization.
             r    [ 1]
--------------------------------------------------------------------------------


 ----------------------------------------------------------------
         Coordinates used in calculation (QCOMP) 
 ----------------------------------------------------------------
 Z-matrix   Atomic            Coordinates (in bohr)
  Symbol    Number           X              Y              Z
 ----------------------------------------------------------------
     C         6        -0.00000000     0.00000000     1.44268153
     O         8         0.00000000     0.00000000    -0.96183256
 ----------------------------------------------------------------
 
   Interatomic distance matrix (Angstroms) 
 
                 C             O    
                [ 1]        [ 2]
  C    [ 1]     0.00000
  O    [ 2]     1.27241     0.00000
 rotcon2
   Rotational constants (in cm-1): 
          1.4461569413             0.0000000000
   Rotational constants (in MHz): 
      43354.7004815218             0.0000000000
  ECPDATA file not present.   Using default ECPDATA. 
  @GTFLGS-I, Hessian will be transformed to curvilinear coordinates.
  There are  218 basis functions.
 @CHECKOUT-I, Total execution time (CPU/WALL):        0.22/       0.30 seconds.
--executable xjoda finished with status     0 in        0.33 seconds (walltime).
 --invoking executable--
/nfs/workspaces/public/cfour_mpi/bin/xvmol
 SERIAL VERSION OF MOLECULE STARTED
********************************************************************************
                    INPUT FROM MOL FILE
********************************************************************************
INTGRL        1    0    1    0    0    0    0    0    0                         
         *** CFOUR Program System (Release V0.1) ***                            
Carbon Monoxide DBOC calculation                                                
    2    2 X  Y       0.10E-08              0    0                              
   9999.00      3.00                                                            
          6.00000000    1    5    1    1    1    1    1                         
C #1  -0.000000000000000   0.000000000000000   1.442681532361257                
   16    9                                                                      
   33980.0000000000       9.100000000000000E-005 -1.900000000000000E-005        
  0.000000000000000E+000  0.000000000000000E+000  0.000000000000000E+000        
  0.000000000000000E+000  0.000000000000000E+000  0.000000000000000E+000        
  0.000000000000000E+000                                                        
   5089.00000000000       7.040000000000000E-004 -1.510000000000000E-004        
  0.000000000000000E+000  0.000000000000000E+000  0.000000000000000E+000        
  0.000000000000000E+000  0.000000000000000E+000  0.000000000000000E+000        
  0.000000000000000E+000                                                        
   1157.00000000000       3.693000000000000E-003 -7.850000000000000E-004        
  0.000000000000000E+000  0.000000000000000E+000  0.000000000000000E+000        
  0.000000000000000E+000  0.000000000000000E+000  0.000000000000000E+000        
  0.000000000000000E+000                                                        
   326.600000000000       1.536000000000000E-002 -3.324000000000000E-003        
  0.000000000000000E+000  0.000000000000000E+000  0.000000000000000E+000        
  0.000000000000000E+000  0.000000000000000E+000  0.000000000000000E+000        
  0.000000000000000E+000                                                        
   106.100000000000       5.292900000000000E-002 -1.151200000000000E-002        
  0.000000000000000E+000  0.000000000000000E+000  0.000000000000000E+000        
  0.000000000000000E+000  0.000000000000000E+000  0.000000000000000E+000        
  0.000000000000000E+000                                                        
   38.1100000000000       0.147043000000000      -3.416000000000000E-002        
  0.000000000000000E+000  0.000000000000000E+000  0.000000000000000E+000        
  0.000000000000000E+000  0.000000000000000E+000  0.000000000000000E+000        
  0.000000000000000E+000                                                        
   14.7500000000000       0.305631000000000      -7.717300000000001E-002        
  0.000000000000000E+000  0.000000000000000E+000  0.000000000000000E+000        
  0.000000000000000E+000  0.000000000000000E+000  0.000000000000000E+000        
  0.000000000000000E+000                                                        
   6.03500000000000       0.399345000000000      -0.141493000000000             
  0.000000000000000E+000  0.000000000000000E+000  0.000000000000000E+000        
  0.000000000000000E+000  0.000000000000000E+000  0.000000000000000E+000        
  0.000000000000000E+000                                                        
   2.53000000000000       0.217051000000000      -0.118019000000000             
  0.000000000000000E+000  0.000000000000000E+000  0.000000000000000E+000        
  0.000000000000000E+000  0.000000000000000E+000  0.000000000000000E+000        
  0.000000000000000E+000                                                        
  0.735500000000000       1.589400000000000E-002  0.273806000000000             
   1.00000000000000       0.000000000000000E+000  0.000000000000000E+000        
  0.000000000000000E+000  0.000000000000000E+000  0.000000000000000E+000        
  0.000000000000000E+000                                                        
  0.290500000000000      -3.084000000000000E-003  0.586510000000000             
  0.000000000000000E+000   1.00000000000000       0.000000000000000E+000        
  0.000000000000000E+000  0.000000000000000E+000  0.000000000000000E+000        
  0.000000000000000E+000                                                        
  0.111100000000000       9.779999999999999E-004  0.285430000000000             
  0.000000000000000E+000  0.000000000000000E+000   1.00000000000000             
  0.000000000000000E+000  0.000000000000000E+000  0.000000000000000E+000        
  0.000000000000000E+000                                                        
   7.21600000000000       0.000000000000000E+000  0.000000000000000E+000        
  0.000000000000000E+000  0.000000000000000E+000  0.000000000000000E+000        
   1.00000000000000       0.000000000000000E+000  0.000000000000000E+000        
  0.000000000000000E+000                                                        
   19.5700000000000       0.000000000000000E+000  0.000000000000000E+000        
  0.000000000000000E+000  0.000000000000000E+000  0.000000000000000E+000        
  0.000000000000000E+000   1.00000000000000       0.000000000000000E+000        
  0.000000000000000E+000                                                        
   53.0730000000000       0.000000000000000E+000  0.000000000000000E+000        
  0.000000000000000E+000  0.000000000000000E+000  0.000000000000000E+000        
  0.000000000000000E+000  0.000000000000000E+000   1.00000000000000             
  0.000000000000000E+000                                                        
  4.145000000000000E-002  0.000000000000000E+000  0.000000000000000E+000        
  0.000000000000000E+000  0.000000000000000E+000  0.000000000000000E+000        
  0.000000000000000E+000  0.000000000000000E+000  0.000000000000000E+000        
   1.00000000000000                                                             
   10    8                                                                      
   34.5100000000000       5.378000000000000E-003  0.000000000000000E+000        
  0.000000000000000E+000  0.000000000000000E+000  0.000000000000000E+000        
  0.000000000000000E+000  0.000000000000000E+000  0.000000000000000E+000        
   7.91500000000000       3.613200000000000E-002  0.000000000000000E+000        
  0.000000000000000E+000  0.000000000000000E+000  0.000000000000000E+000        
  0.000000000000000E+000  0.000000000000000E+000  0.000000000000000E+000        
   2.36800000000000       0.142493000000000       0.000000000000000E+000        
  0.000000000000000E+000  0.000000000000000E+000  0.000000000000000E+000        
  0.000000000000000E+000  0.000000000000000E+000  0.000000000000000E+000        
  0.813200000000000       0.342150000000000        1.00000000000000             
  0.000000000000000E+000  0.000000000000000E+000  0.000000000000000E+000        
  0.000000000000000E+000  0.000000000000000E+000  0.000000000000000E+000        
  0.289000000000000       0.463864000000000       0.000000000000000E+000        
   1.00000000000000       0.000000000000000E+000  0.000000000000000E+000        
  0.000000000000000E+000  0.000000000000000E+000  0.000000000000000E+000        
  0.100700000000000       0.250028000000000       0.000000000000000E+000        
  0.000000000000000E+000   1.00000000000000       0.000000000000000E+000        
  0.000000000000000E+000  0.000000000000000E+000  0.000000000000000E+000        
   8.18200000000000       0.000000000000000E+000  0.000000000000000E+000        
  0.000000000000000E+000  0.000000000000000E+000   1.00000000000000             
  0.000000000000000E+000  0.000000000000000E+000  0.000000000000000E+000        
   24.1860000000000       0.000000000000000E+000  0.000000000000000E+000        
  0.000000000000000E+000  0.000000000000000E+000  0.000000000000000E+000        
   1.00000000000000       0.000000000000000E+000  0.000000000000000E+000        
   71.4940000000000       0.000000000000000E+000  0.000000000000000E+000        
  0.000000000000000E+000  0.000000000000000E+000  0.000000000000000E+000        
  0.000000000000000E+000   1.00000000000000       0.000000000000000E+000        
  3.218000000000000E-002  0.000000000000000E+000  0.000000000000000E+000        
  0.000000000000000E+000  0.000000000000000E+000  0.000000000000000E+000        
  0.000000000000000E+000  0.000000000000000E+000   1.00000000000000             
    6    6                                                                      
   1.84800000000000        1.00000000000000       0.000000000000000E+000        
  0.000000000000000E+000  0.000000000000000E+000  0.000000000000000E+000        
  0.000000000000000E+000                                                        
  0.649000000000000       0.000000000000000E+000   1.00000000000000             
  0.000000000000000E+000  0.000000000000000E+000  0.000000000000000E+000        
  0.000000000000000E+000                                                        
  0.228000000000000       0.000000000000000E+000  0.000000000000000E+000        
   1.00000000000000       0.000000000000000E+000  0.000000000000000E+000        
  0.000000000000000E+000                                                        
   8.65600000000000       0.000000000000000E+000  0.000000000000000E+000        
  0.000000000000000E+000   1.00000000000000       0.000000000000000E+000        
  0.000000000000000E+000                                                        
   33.2130000000000       0.000000000000000E+000  0.000000000000000E+000        
  0.000000000000000E+000  0.000000000000000E+000   1.00000000000000             
  0.000000000000000E+000                                                        
  7.660000000000000E-002  0.000000000000000E+000  0.000000000000000E+000        
  0.000000000000000E+000  0.000000000000000E+000  0.000000000000000E+000        
   1.00000000000000                                                             
    4    4                                                                      
   1.41900000000000        1.00000000000000       0.000000000000000E+000        
  0.000000000000000E+000  0.000000000000000E+000                                
  0.485000000000000       0.000000000000000E+000   1.00000000000000             
  0.000000000000000E+000  0.000000000000000E+000                                
   24.6940000000000       0.000000000000000E+000  0.000000000000000E+000        
   1.00000000000000       0.000000000000000E+000                                
  0.187000000000000       0.000000000000000E+000  0.000000000000000E+000        
  0.000000000000000E+000   1.00000000000000                                     
    2    2                                                                      
   1.01100000000000        1.00000000000000       0.000000000000000E+000        
  0.424000000000000       0.000000000000000E+000   1.00000000000000             
          8.00000000    1    5    1    1    1    1    1                         
O #2   0.000000000000000   0.000000000000000  -0.961832557729656                
   16    9                                                                      
   61420.0000000000       9.000000000000001E-005 -2.000000000000000E-005        
  0.000000000000000E+000  0.000000000000000E+000  0.000000000000000E+000        
  0.000000000000000E+000  0.000000000000000E+000  0.000000000000000E+000        
  0.000000000000000E+000                                                        
   9199.00000000000       6.980000000000001E-004 -1.590000000000000E-004        
  0.000000000000000E+000  0.000000000000000E+000  0.000000000000000E+000        
  0.000000000000000E+000  0.000000000000000E+000  0.000000000000000E+000        
  0.000000000000000E+000                                                        
   2091.00000000000       3.664000000000000E-003 -8.290000000000000E-004        
  0.000000000000000E+000  0.000000000000000E+000  0.000000000000000E+000        
  0.000000000000000E+000  0.000000000000000E+000  0.000000000000000E+000        
  0.000000000000000E+000                                                        
   590.900000000000       1.521800000000000E-002 -3.508000000000000E-003        
  0.000000000000000E+000  0.000000000000000E+000  0.000000000000000E+000        
  0.000000000000000E+000  0.000000000000000E+000  0.000000000000000E+000        
  0.000000000000000E+000                                                        
   192.300000000000       5.242300000000000E-002 -1.215600000000000E-002        
  0.000000000000000E+000  0.000000000000000E+000  0.000000000000000E+000        
  0.000000000000000E+000  0.000000000000000E+000  0.000000000000000E+000        
  0.000000000000000E+000                                                        
   69.3200000000000       0.145921000000000      -3.626100000000000E-002        
  0.000000000000000E+000  0.000000000000000E+000  0.000000000000000E+000        
  0.000000000000000E+000  0.000000000000000E+000  0.000000000000000E+000        
  0.000000000000000E+000                                                        
   26.9700000000000       0.305258000000000      -8.299200000000000E-002        
  0.000000000000000E+000  0.000000000000000E+000  0.000000000000000E+000        
  0.000000000000000E+000  0.000000000000000E+000  0.000000000000000E+000        
  0.000000000000000E+000                                                        
   11.1000000000000       0.398508000000000      -0.152090000000000             
  0.000000000000000E+000  0.000000000000000E+000  0.000000000000000E+000        
  0.000000000000000E+000  0.000000000000000E+000  0.000000000000000E+000        
  0.000000000000000E+000                                                        
   4.68200000000000       0.216980000000000      -0.115331000000000             
  0.000000000000000E+000  0.000000000000000E+000  0.000000000000000E+000        
  0.000000000000000E+000  0.000000000000000E+000  0.000000000000000E+000        
  0.000000000000000E+000                                                        
   1.42800000000000       1.759400000000000E-002  0.288979000000000             
   1.00000000000000       0.000000000000000E+000  0.000000000000000E+000        
  0.000000000000000E+000  0.000000000000000E+000  0.000000000000000E+000        
  0.000000000000000E+000                                                        
  0.554700000000000      -2.502000000000000E-003  0.586128000000000             
  0.000000000000000E+000   1.00000000000000       0.000000000000000E+000        
  0.000000000000000E+000  0.000000000000000E+000  0.000000000000000E+000        
  0.000000000000000E+000                                                        
  0.206700000000000       9.540000000000000E-004  0.277624000000000             
  0.000000000000000E+000  0.000000000000000E+000   1.00000000000000             
  0.000000000000000E+000  0.000000000000000E+000  0.000000000000000E+000        
  0.000000000000000E+000                                                        
   12.9740000000000       0.000000000000000E+000  0.000000000000000E+000        
  0.000000000000000E+000  0.000000000000000E+000  0.000000000000000E+000        
   1.00000000000000       0.000000000000000E+000  0.000000000000000E+000        
  0.000000000000000E+000                                                        
   34.9000000000000       0.000000000000000E+000  0.000000000000000E+000        
  0.000000000000000E+000  0.000000000000000E+000  0.000000000000000E+000        
  0.000000000000000E+000   1.00000000000000       0.000000000000000E+000        
  0.000000000000000E+000                                                        
   93.8810000000000       0.000000000000000E+000  0.000000000000000E+000        
  0.000000000000000E+000  0.000000000000000E+000  0.000000000000000E+000        
  0.000000000000000E+000  0.000000000000000E+000   1.00000000000000             
  0.000000000000000E+000                                                        
  6.959000000000000E-002  0.000000000000000E+000  0.000000000000000E+000        
  0.000000000000000E+000  0.000000000000000E+000  0.000000000000000E+000        
  0.000000000000000E+000  0.000000000000000E+000  0.000000000000000E+000        
   1.00000000000000                                                             
   10    8                                                                      
   63.4200000000000       6.044000000000000E-003  0.000000000000000E+000        
  0.000000000000000E+000  0.000000000000000E+000  0.000000000000000E+000        
  0.000000000000000E+000  0.000000000000000E+000  0.000000000000000E+000        
   14.6600000000000       4.179900000000000E-002  0.000000000000000E+000        
  0.000000000000000E+000  0.000000000000000E+000  0.000000000000000E+000        
  0.000000000000000E+000  0.000000000000000E+000  0.000000000000000E+000        
   4.45900000000000       0.161143000000000       0.000000000000000E+000        
  0.000000000000000E+000  0.000000000000000E+000  0.000000000000000E+000        
  0.000000000000000E+000  0.000000000000000E+000  0.000000000000000E+000        
   1.53100000000000       0.356731000000000        1.00000000000000             
  0.000000000000000E+000  0.000000000000000E+000  0.000000000000000E+000        
  0.000000000000000E+000  0.000000000000000E+000  0.000000000000000E+000        
  0.530200000000000       0.448309000000000       0.000000000000000E+000        
   1.00000000000000       0.000000000000000E+000  0.000000000000000E+000        
  0.000000000000000E+000  0.000000000000000E+000  0.000000000000000E+000        
  0.175000000000000       0.244940000000000       0.000000000000000E+000        
  0.000000000000000E+000   1.00000000000000       0.000000000000000E+000        
  0.000000000000000E+000  0.000000000000000E+000  0.000000000000000E+000        
   14.4750000000000       0.000000000000000E+000  0.000000000000000E+000        
  0.000000000000000E+000  0.000000000000000E+000   1.00000000000000             
  0.000000000000000E+000  0.000000000000000E+000  0.000000000000000E+000        
   42.7300000000000       0.000000000000000E+000  0.000000000000000E+000        
  0.000000000000000E+000  0.000000000000000E+000  0.000000000000000E+000        
   1.00000000000000       0.000000000000000E+000  0.000000000000000E+000        
   126.140000000000       0.000000000000000E+000  0.000000000000000E+000        
  0.000000000000000E+000  0.000000000000000E+000  0.000000000000000E+000        
  0.000000000000000E+000   1.00000000000000       0.000000000000000E+000        
  5.348000000000000E-002  0.000000000000000E+000  0.000000000000000E+000        
  0.000000000000000E+000  0.000000000000000E+000  0.000000000000000E+000        
  0.000000000000000E+000  0.000000000000000E+000   1.00000000000000             
    6    6                                                                      
   3.77500000000000        1.00000000000000       0.000000000000000E+000        
  0.000000000000000E+000  0.000000000000000E+000  0.000000000000000E+000        
  0.000000000000000E+000                                                        
   1.30000000000000       0.000000000000000E+000   1.00000000000000             
  0.000000000000000E+000  0.000000000000000E+000  0.000000000000000E+000        
  0.000000000000000E+000                                                        
  0.444000000000000       0.000000000000000E+000  0.000000000000000E+000        
   1.00000000000000       0.000000000000000E+000  0.000000000000000E+000        
  0.000000000000000E+000                                                        
   14.9270000000000       0.000000000000000E+000  0.000000000000000E+000        
  0.000000000000000E+000   1.00000000000000       0.000000000000000E+000        
  0.000000000000000E+000                                                        
   57.5440000000000       0.000000000000000E+000  0.000000000000000E+000        
  0.000000000000000E+000  0.000000000000000E+000   1.00000000000000             
  0.000000000000000E+000                                                        
  0.154000000000000       0.000000000000000E+000  0.000000000000000E+000        
  0.000000000000000E+000  0.000000000000000E+000  0.000000000000000E+000        
   1.00000000000000                                                             
    4    4                                                                      
   2.66600000000000        1.00000000000000       0.000000000000000E+000        
  0.000000000000000E+000  0.000000000000000E+000                                
  0.859000000000000       0.000000000000000E+000   1.00000000000000             
  0.000000000000000E+000  0.000000000000000E+000                                
   26.4830000000000       0.000000000000000E+000  0.000000000000000E+000        
   1.00000000000000       0.000000000000000E+000                                
  0.324000000000000       0.000000000000000E+000  0.000000000000000E+000        
  0.000000000000000E+000   1.00000000000000                                     
    2    2                                                                      
   1.84600000000000        1.00000000000000       0.000000000000000E+000        
  0.714000000000000       0.000000000000000E+000   1.00000000000000             
FINISH                                                                          
 
********************************************************************************
 ONE- AND TWO-ELECTRON INTEGRALS OVER SYMMETRY-ADAPTED AOS ARE CALCULATED.

  SPHERICAL HARMONICS ARE USED.
  
  INTEGRALS LESS THAN  0.10E-13 ARE NEGLECTED.

  NUCLEAR REPULSION ENERGY :   19.9624532033 A.U.
  @MOLECU-I, ONE ELECTRON INTEGRALS (CPU/WALL):        0.06/       0.06 SECONDS.
  @TWOEL-I,    4537808 INTEGRALS OF SYMMETRY TYPE  I I I I
  @TWOEL-I,   19512887 INTEGRALS OF SYMMETRY TYPE  I J I J
  @TWOEL-I,   10281884 INTEGRALS OF SYMMETRY TYPE  I I J J
  @TWOEL-I,   14441729 INTEGRALS OF SYMMETRY TYPE  I J K L
  @TWOEL-I, TOTAL NUMBER OF 2-E INTEGRALS   48774308.
  @MOLECU-I, TWO ELECTRON INTEGRALS (CPU/WALL):      237.16/      32.08 SECONDS.
 @CHECKOUT-I, Total execution time (CPU/WALL):      237.25/      32.21 seconds.

Running with 14 threads/proc

--executable xvmol finished with status     0 in       32.24 seconds (walltime).
 --invoking executable--
/nfs/workspaces/public/cfour_mpi/bin/xvmol2ja
 @GETMEM-I,  Allocated    3814 MB of main memory.
 @CHECKOUT-I, Total execution time (CPU/WALL):        0.16/       0.07 seconds.
--executable xvmol2ja finished with status     0 in        0.13 seconds (walltime).
 --invoking executable--
/nfs/workspaces/public/cfour_mpi/bin/xvprop
 @GETMEM-I,  Allocated    3814 MB of main memory.
   Property integrals will be calculated.
    --------------------------------------------------------------
                                   Property evaluated at 
    Property type                X             Y             Z
    --------------------------------------------------------------
    Dipole moment               ----          ----          ----  
    Quadrupole moment           ----          ----          ----  
    Octopole moment             ----          ----          ----  
    Relativisitic corr.         ----          ----          ----  
    Second moment            0.0000000     0.0000000     0.0000000
    Electron density         0.0000000     0.0000000     1.4426815
    Electron density         0.0000000     0.0000000    -0.9618326
    Field gradient           0.0000000     0.0000000     1.4426815
    Field gradient           0.0000000     0.0000000    -0.9618326
    Potential                0.0000000     0.0000000     1.4426815
    Potential                0.0000000     0.0000000    -0.9618326
    --------------------------------------------------------------
 @CHECKOUT-I, Total execution time (CPU/WALL):        1.38/       1.42 seconds.
--executable xvprop finished with status     0 in        1.45 seconds (walltime).
 --invoking executable--
/nfs/workspaces/public/cfour_mpi/bin/xvscf
  There are  218 functions in the AO basis.

  There are 4 irreducible representations.

       Irrep        # of functions
         1                 86
         2                 52
         3                 52
         4                 28


  Parameters for SCF calculation: 
        SCF reference function:  RHF  
  Maximum number of iterations:  150
     Full symmetry point group: CXv 
     Computational point group: C2v 
        Initial density matrix: MOREAD                 
     SCF convergence tolerance: 10**(-10)
  DIIS convergence acceleration:  ON
          Latest start for DIIS:   8
                     DIIS order:   6

  Memory information:    2523578 words required.
  Fock matrices are constructed from AO integral file.
 @GETMEM-I,  Allocated      19 MB of main memory.
  Initialization and symmetry analysis required      0.002 seconds.

  Adding electric field perturbation to one-electron Hamiltonian.
  Field direction     : Z
  Field strength      :  0.0002000 a.u.

  @INITGES-I, Occupancies from core Hamiltonian:

          Alpha population by irrep:   5    1    1    0
           Beta population by irrep:   5    1    1    0


 total no. of electrons in initial guess :  0.000000000000000E+000
  --------------------------------------------------------------------
  Iteration         Total Energy            Largest Density Difference
  --------------------------------------------------------------------
       0            19.962260917506050              0.0000000000D+00
   current occupation vector 
     5  1  1  0
     5  1  1  0
       1           -92.679202288927797              0.1801229811D+02
   current occupation vector 
     5  1  1  0
     5  1  1  0
       2           -98.191371579990914              0.1800821318D+02
   current occupation vector 
     5  1  1  0
     5  1  1  0
       3          -103.521102893029536              0.7903430668D+01
   current occupation vector 
     5  1  1  0
     5  1  1  0
       4           -99.555817038935857              0.7142015983D+01
   current occupation vector 
     5  1  1  0
     5  1  1  0
       5          -102.120154847590612              0.5970407135D+01
   current occupation vector 
     5  1  1  0
     5  1  1  0
       6           -98.540658374812040              0.5939548361D+01
   current occupation vector 
     5  1  1  0
     5  1  1  0
       7          -102.135905583889780              0.6142852433D+01
   current occupation vector 
     5  1  1  0
     5  1  1  0
       8           -98.444142015276441              0.6140339932D+01
   current occupation vector 
     5  1  1  0
     5  1  1  0
       9          -109.438814491314815              0.4623747711D+01
   current occupation vector 
     5  1  1  0
     5  1  1  0
      10          -111.470299928493063              0.1128527701D+01
   current occupation vector 
     5  1  1  0
     5  1  1  0
      11          -112.642421769750342              0.7768965818D+00
   current occupation vector 
     5  1  1  0
     5  1  1  0
      12          -112.734208713704362              0.2842872506D+00
   current occupation vector 
     5  1  1  0
     5  1  1  0
      13          -112.735827923236315              0.4462474864D-01
   current occupation vector 
     5  1  1  0
     5  1  1  0
      14          -112.736024907897587              0.1635020703D-01
   current occupation vector 
     5  1  1  0
     5  1  1  0
      15          -112.736058494745095              0.1069398025D-01
   current occupation vector 
     5  1  1  0
     5  1  1  0
      16          -112.736058973429238              0.9740673862D-03
   current occupation vector 
     5  1  1  0
     5  1  1  0
      17          -112.736059001913247              0.2958105739D-03
   current occupation vector 
     5  1  1  0
     5  1  1  0
      18          -112.736059004383293              0.9747384361D-04
   current occupation vector 
     5  1  1  0
     5  1  1  0
      19          -112.736059004442239              0.1595435231D-04
   current occupation vector 
     5  1  1  0
     5  1  1  0
      20          -112.736059004444627              0.2531775884D-05
   current occupation vector 
     5  1  1  0
     5  1  1  0
      21          -112.736059004443320              0.3812060034D-06
   current occupation vector 
     5  1  1  0
     5  1  1  0
      22          -112.736059004443121              0.7634675692D-07
   current occupation vector 
     5  1  1  0
     5  1  1  0
      23          -112.736059004443348              0.2281591760D-07
   current occupation vector 
     5  1  1  0
     5  1  1  0
      24          -112.736059004443206              0.4785045693D-09
   current occupation vector 
     5  1  1  0
     5  1  1  0
      25          -112.736059004444513              0.3421061212D-09
   current occupation vector 
     5  1  1  0
     5  1  1  0
      26          -112.736059004443291              0.2929527732D-09
   current occupation vector 
     5  1  1  0
     5  1  1  0

  SCF has converged.

 Density matrix saved to file den.dat
 total electron number:   13.9999999999999     
     E(SCF)=      -112.736059004443291              0.5926281688D-10

  Eigenvector printing suppressed.

 @PUTMOS-I, Writing converged MOs to NEWMOS. 
 @PUTMOS-I, Symmetry   1 Full Blocks 21 Partial Blocksize   2
 @PUTMOS-I, Symmetry   2 Full Blocks 13 Partial Blocksize   0
 @PUTMOS-I, Symmetry   3 Full Blocks 13 Partial Blocksize   0
 @PUTMOS-I, Symmetry   4 Full Blocks  7 Partial Blocksize   0
 @PUTFOCK-I, Writing converged Fock matrix to NEWFOCK. 
 @PUTFOCK-I, Symmetry   1 Full Blocks 21 Partial Blocksize   2
 @PUTFOCK-I, Symmetry   2 Full Blocks 13 Partial Blocksize   0
 @PUTFOCK-I, Symmetry   3 Full Blocks 13 Partial Blocksize   0
 @PUTFOCK-I, Symmetry   4 Full Blocks  7 Partial Blocksize   0


 
  ORBITAL EIGENVALUES (ALPHA)  (1H = 27.2113834 eV)

       MO #        E(hartree)               E(eV)           FULLSYM    COMPSYM
       ----   --------------------   --------------------   -------   ---------
    1     1         -20.6661400597        -562.3542605612     SG+        A1 (1)
    2     2         -11.4221555765        -310.8126546467     SG+        A1 (1)
    3     3          -1.4285694880         -38.8733520519     SG+        A1 (1)
    4     4          -0.7946773611         -21.6242703515     SG+        A1 (1)
    5   139          -0.5840168803         -15.8919072419      PI        B2 (3)
    6    87          -0.5840168803         -15.8919072419      PI        B1 (2)
    7     5          -0.5652704224         -15.3817901896     SG+        A1 (1)
  +++++++++++++++++++++++++++++++++++++++++++++++++++++++++++++++++++++++++++++
    8    88           0.0536686535           1.4603983080      PI        B1 (2)
    9   140           0.0536686535           1.4603983080      PI        B2 (3)
   10     6           0.0621652081           1.6916013129     SG+        A1 (1)
   11     7           0.0725372646           1.9738393181     SG+        A1 (1)
   12    89           0.1070569548           2.9131678432      PI        B1 (2)
   13   141           0.1070569548           2.9131678432      PI        B2 (3)
   14     8           0.1563123532           4.2534753721     SG+        A1 (1)
   15    90           0.1679201291           4.5693390139      PI        B1 (2)
   16   142           0.1679201291           4.5693390139      PI        B2 (3)
   17     9           0.2272709158           6.1843560249      DE        A1 (1)
   18   191           0.2272709158           6.1843560249      DE        A2 (4)
   19    10           0.2281985304           6.2095977029     SG+        A1 (1)
   20    11           0.3000434038           8.1645960975     SG+        A1 (1)
   21   143           0.3075351115           8.3684558277      PI        B2 (3)
   22    91           0.3075351115           8.3684558277      PI        B1 (2)
   23    12           0.3846083615          10.4657255833     SG+        A1 (1)
   24    92           0.3959740156          10.7750007553      PI        B1 (2)
   25   144           0.3959740156          10.7750007554      PI        B2 (3)
   26    13           0.5090638570          13.8523317876     SG+        A1 (1)
   27   192           0.5422839660          14.7562969093      DE        A2 (4)
   28    14           0.5422839660          14.7562969093      DE        A1 (1)
   29    15           0.5786544066          15.7459869141     SG+        A1 (1)
   30   145           0.6253890062          17.0177000224      PI        B2 (3)
   31    93           0.6253890062          17.0177000224      PI        B1 (2)
   32    94           0.7452186442          20.2784302440      PH        B1 (2)
   33   146           0.7452186442          20.2784302440      PH        B2 (3)
   34   193           0.7613608215          20.7176812201      DE        A2 (4)
   35    16           0.7613608215          20.7176812201      DE        A1 (1)
   36    17           0.7680972249          20.9009880752     SG+        A1 (1)
   37   147           0.8066471435          21.9499846898      PI        B2 (3)
   38    95           0.8066471435          21.9499846898      PI        B1 (2)
   39    18           0.8350086897          22.7217415978     SG+        A1 (1)
   40    19           0.8707544285          23.6944326014     SG+        A1 (1)
   41   194           0.8826782445          24.0188961289      DE        A2 (4)
   42    20           0.8826782445          24.0188961289      DE        A1 (1)
   43    96           0.8923437264          24.2819072637      PI        B1 (2)
   44   148           0.8923437264          24.2819072637      PI        B2 (3)
   45    97           1.0485920475          28.5336402358      PI        B1 (2)
   46   149           1.0485920475          28.5336402358      PI        B2 (3)
   47    21           1.1320565647          30.8048252115     SG+        A1 (1)
   48    22           1.4290110893          38.8853686333     SG+        A1 (1)
   49   150           1.4370115034          39.1030709688      PH        B2 (3)
   50    98           1.4370115034          39.1030709688      PH        B1 (2)
   51   195           1.5417213479          41.9523706943      DE        A2 (4)
   52    23           1.5417213479          41.9523706944      DE        A1 (1)
   53   151           1.5694958692          42.7081538426      PI        B2 (3)
   54    99           1.5694958692          42.7081538426      PI        B1 (2)
   55    24           1.6577908402          45.1107821504     SG+        A1 (1)
   56   152           1.7021356014          46.3174644496      PI        B2 (3)
   57   100           1.7021356014          46.3174644496      PI        B1 (2)
   58   196           1.7451303382          47.4874107156      DE        A2 (4)
   59    25           1.7451303382          47.4874107156      DE        A1 (1)
   60    26           1.8266326050          49.7052001462     SG+        A1 (1)
   61   153           2.0380712973          55.4587394673      PI        B2 (3)
   62   101           2.0380712973          55.4587394673      PI        B1 (2)
   63    27           2.0569954490          55.9736918146     SG+        A1 (1)
   64   197           2.0952582600          57.0148758359      PI        A2 (4)
   65    28           2.0952582600          57.0148758359      PI        A1 (1)
   66   198           2.1695672937          59.0369274397      DE        A2 (4)
   67    29           2.1695672937          59.0369274397      DE        A1 (1)
   68   102           2.2389505797          60.9249426367      PH        B1 (2)
   69   154           2.2389505797          60.9249426367      PH        B2 (3)
   70   155           2.2941422768          62.4267850676      PI        B2 (3)
   71   103           2.2941422768          62.4267850676      PI        B1 (2)
   72    30           2.3004359583          62.5980448481     SG+        A1 (1)
   73   104           2.3115484890          62.9004321813      PH        B1 (2)
   74   156           2.3115484890          62.9004321813      PH        B2 (3)
   75   199           2.3402444098          63.6812878836      DE        A2 (4)
   76    31           2.3402444098          63.6812878836      DE        A1 (1)
   77    32           2.4885923612          67.7180408658     SG+        A1 (1)
   78   157           2.5577954833          69.6011535557      PI        B2 (3)
   79   105           2.5577954833          69.6011535557      PI        B1 (2)
   80   158           2.7197195455          74.0073312940      PI        B2 (3)
   81   106           2.7197195455          74.0073312940      PI        B1 (2)
   82    33           2.7448361647          74.6907892477     SG+        A1 (1)
   83   200           2.8861689642          78.5366502427      DE        A2 (4)
   84    34           2.8861689642          78.5366502428      DE        A1 (1)
   85    35           3.4334012041          93.4275965301     SG+        A1 (1)
   86   159           3.6750881016         100.0042313627      PI        B2 (3)
   87   107           3.6750881016         100.0042313627      PI        B1 (2)
   88    36           3.7054867033         100.8314193681      PI        A1 (1)
   89   201           3.7054867033         100.8314193681      PI        A2 (4)
   90    37           3.9027536594         106.1993261405     SG+        A1 (1)
   91   160           4.0840184832         111.1317927584      PH        B2 (3)
   92   108           4.0840184832         111.1317927584      PH        B1 (2)
   93   161           4.1529738895         113.0081647569      PH        B2 (3)
   94   109           4.1529738895         113.0081647569      PH        B1 (2)
   95   162           4.1896960142         114.0074245720      PI        B2 (3)
   96   110           4.1896960142         114.0074245720      PI        B1 (2)
   97   202           4.1977942803         114.2277895951      DE        A2 (4)
   98    38           4.1977942803         114.2277895951      DE        A1 (1)
   99    39           4.2278834133         115.0465565307     SG+        A1 (1)
  100   203           4.3207251013         117.5729072974      DE        A2 (4)
  101    40           4.3207251013         117.5729072975      DE        A1 (1)
  102    41           4.3883346305         119.4126561189     SG+        A1 (1)
  103   163           4.8874501550         132.9942800164      PI        B2 (3)
  104   111           4.8874501550         132.9942800165      PI        B1 (2)
  105   164           4.9072963346         133.5343220184      PI        B2 (3)
  106   112           4.9072963346         133.5343220184      PI        B1 (2)
  107   204           5.0286485662         136.8364841181      DE        A2 (4)
  108    42           5.0286485662         136.8364841182      DE        A1 (1)
  109    43           5.1835086606         141.0504415221     SG+        A1 (1)
  110    44           5.3796905796         146.3888229350     SG+        A1 (1)
  111   113           5.6428577425         153.5499655021      PI        B1 (2)
  112   165           5.6428577425         153.5499655021      PI        B2 (3)
  113   205           5.8788281808         159.9710475694      PI        A2 (4)
  114    45           5.8788281808         159.9710475694      PI        A1 (1)
  115   166           6.0193107071         163.7937714549      PH        B2 (3)
  116   114           6.0193107071         163.7937714549      PH        B1 (2)
  117    46           6.2276165629         169.4620619611     SG+        A1 (1)
  118   206           6.2479461405         170.0152578929      DE        A2 (4)
  119    47           6.2479461405         170.0152578929      DE        A1 (1)
  120   167           6.2797022766         170.8793862876      PI        B2 (3)
  121   115           6.2797022766         170.8793862876      PI        B1 (2)
  122   168           6.4170490125         174.6167809757      PH        B2 (3)
  123   116           6.4170490125         174.6167809757      PH        B1 (2)
  124   207           6.5459269145         178.1237269791      DE        A2 (4)
  125    48           6.5459269145         178.1237269791      DE        A1 (1)
  126    49           6.6345856539         180.5362539297     SG+        A1 (1)
  127   208           6.8688703436         186.9114644440      DE        A2 (4)
  128    50           6.8688703436         186.9114644440      DE        A1 (1)
  129   169           7.1863387486         195.5502189302      PI        B2 (3)
  130   117           7.1863387486         195.5502189302      PI        B1 (2)
  131    51           7.5318284295         204.9514710993     SG+        A1 (1)
  132   170           8.0454841151         218.9287528947      PI        B2 (3)
  133   118           8.0454841151         218.9287528947      PI        B1 (2)
  134    52           8.2022870409         223.1955774279     SG+        A1 (1)
  135   171          10.0865986278         274.4703024618      PI        B2 (3)
  136   119          10.0865986278         274.4703024621      PI        B1 (2)
  137    53          10.2285528892         278.3330742948     SG+        A1 (1)
  138    54          10.6124901964         288.7805395634      PI        A1 (1)
  139   209          10.6124901964         288.7805395634      PI        A2 (4)
  140   120          10.8064787571         294.0592366639      PH        B1 (2)
  141   172          10.8064787571         294.0592366639      PH        B2 (3)
  142    55          10.9086845820         296.8403985505     SG+        A1 (1)
  143   210          11.0407274422         300.4334674439      DE        A2 (4)
  144    56          11.0407274422         300.4334674439      DE        A1 (1)
  145   173          11.2360366971         305.7481024623      PI        B2 (3)
  146   121          11.2360366971         305.7481024623      PI        B1 (2)
  147    57          11.5180884173         313.4231199575     SG+        A1 (1)
  148   174          11.8590345012         322.7007345664      PH        B2 (3)
  149   122          11.8590345012         322.7007345664      PH        B1 (2)
  150   211          12.1548335342         330.7498354625      DE        A2 (4)
  151    58          12.1548335342         330.7498354627      DE        A1 (1)
  152   175          12.5751063226         342.1860394412      PI        B2 (3)
  153   123          12.5751063226         342.1860394412      PI        B1 (2)
  154   212          12.8022550674         348.3670710246      DE        A2 (4)
  155    59          12.8022550674         348.3670710247      DE        A1 (1)
  156    60          12.9987116439         353.7129262474     SG+        A1 (1)
  157   124          13.4768668678         366.7241913694      PI        B1 (2)
  158   176          13.4768668678         366.7241913694      PI        B2 (3)
  159    61          14.6210870658         397.8600058730     SG+        A1 (1)
  160    62          17.7833213073         483.9087742180     SG+        A1 (1)
  161   125          19.1141583117         520.1226901893      PI        B1 (2)
  162   177          19.1141583118         520.1226901894      PI        B2 (3)
  163    63          20.5137975920         558.2088112658     SG+        A1 (1)
  164   213          26.4115899196         718.6958995057      DE        A2 (4)
  165    64          26.4115899196         718.6958995058      DE        A1 (1)
  166   178          26.8421769467         730.4127681869      PI        B2 (3)
  167   126          26.8421769467         730.4127681870      PI        B1 (2)
  168    65          27.5974236711         750.9640763659     SG+        A1 (1)
  169   179          33.7329432194         917.9200511537      PI        B2 (3)
  170   127          33.7329432194         917.9200511545      PI        B1 (2)
  171    66          34.6353960045         942.4770398893     SG+        A1 (1)
  172    67          36.3297234793         988.5820344121     SG+        A1 (1)
  173   214          47.0935767784        1281.4813733939      DE        A2 (4)
  174    68          47.0935767784        1281.4813733940      DE        A1 (1)
  175   128          47.3953252769        1289.6923674774      PI        B1 (2)
  176   180          47.3953252769        1289.6923674774      PI        B2 (3)
  177    69          48.1334460991        1309.7776561655     SG+        A1 (1)
  178    70          64.0379727023        1742.5618273617     SG+        A1 (1)
  179   129          66.6142222068        1812.6651403609      PI        B1 (2)
  180   181          66.6142222068        1812.6651403609      PI        B2 (3)
  181    71          67.6586740368        1841.0861195500     SG+        A1 (1)
  182   182          98.6109998182        2683.3417235113      PH        B2 (3)
  183   130          98.6109998182        2683.3417235113      PH        B1 (2)
  184   215          98.6263827992        2683.7603157053      DE        A2 (4)
  185    72          98.6263827992        2683.7603157053      DE        A1 (1)
  186   131          98.6649821187        2684.8106565860      PI        B1 (2)
  187   183          98.6649821187        2684.8106565861      PI        B2 (3)
  188    73          98.6862513795        2685.3894225959     SG+        A1 (1)
  189   184         103.2838353922        2810.4960438798      PH        B2 (3)
  190   132         103.2838353922        2810.4960438798      PH        B1 (2)
  191    74         103.3147907053        2811.3383807737      DE        A1 (1)
  192   216         103.3147907053        2811.3383807740      DE        A2 (4)
  193   185         103.3536050436        2812.3945726134      PI        B2 (3)
  194   133         103.3536050436        2812.3945726135      PI        B1 (2)
  195    75         103.3748203538        2812.9718705538     SG+        A1 (1)
  196   217         115.0905805258        3131.7739124151      DE        A2 (4)
  197    76         115.0905805258        3131.7739124152      DE        A1 (1)
  198   186         115.2997827165        3137.4665934356      PI        B2 (3)
  199   134         115.2997827165        3137.4665934356      PI        B1 (2)
  200    77         115.6739531961        3147.6482898136     SG+        A1 (1)
  201   187         116.9919210745        3183.5120190621      PI        B2 (3)
  202   135         116.9919210746        3183.5120190631      PI        B1 (2)
  203    78         117.7048741048        3202.9124573140     SG+        A1 (1)
  204    79         122.5385774891        3334.4442133471     SG+        A1 (1)
  205   218         198.5597200892        5403.0846711447      DE        A2 (4)
  206    80         198.5597200892        5403.0846711448      DE        A1 (1)
  207   136         198.7207716386        5407.4671066006      PI        B1 (2)
  208   188         198.7207716386        5407.4671066008      PI        B2 (3)
  209    81         199.0992629402        5417.7663785238     SG+        A1 (1)
  210    82         216.5414881576        5892.3934562630     SG+        A1 (1)
  211   189         225.0537921574        6124.0250240195      PI        B2 (3)
  212   137         225.0537921574        6124.0250240195      PI        B1 (2)
  213    83         225.8910764688        6146.8086884308     SG+        A1 (1)
  214   190         395.4523609114       10760.8058091952      PI        B2 (3)
  215   138         395.4523609115       10760.8058091973      PI        B1 (2)
  216    84         396.0367383239       10776.7075270165     SG+        A1 (1)
  217    85         509.1298823949       13854.1284302447     SG+        A1 (1)
  218    86         895.3725281606       24364.3251496059     SG+        A1 (1)


  VSCF finished.

 @CHECKOUT-I, Total execution time (CPU/WALL):       50.64/      11.52 seconds.
--executable xvscf finished with status     0 in       11.58 seconds (walltime).
 --invoking executable--
/nfs/workspaces/public/cfour_mpi/bin/xvtran
 @GETMEM-I,  Allocated    3814 MB of main memory.
  Full RHF integral transformation
  Transformation of IIII integrals :
  1 pass through the AO integral file was required.
     4537808 AO integrals were read.
     8770883 MO integrals were written to HF2.
  Transformation of IIJJ integrals :
  1 pass through the AO integral file was required.
    10281884 AO integrals were read.
    14556336 MO integrals were written to HF2.
  Transformation of IJIJ integrals :
  1 pass through the AO integral file was required.
    19512887 AO integrals were read.
    27289586 MO integrals were written to HF2.
  Transformation of IJKL integrals :
  1 pass through the AO integral file was required.
    14441729 AO integrals were read.
    18445672 MO integrals were written to HF2.
  Summary of active molecular orbitals: 
------------------------------------------------------------------------
 
  Index      Eigenvalue    Symmetry    Index      Eigenvalue    Symmetry
------------------------------------------------------------------------
     1       -20.6661401        1       110         4.1529739        2
     2       -11.4221556        1       111         4.1896960        2
     3        -1.4285695        1       112         4.8874502        2
     4        -0.7946774        1       113         4.9072963        2
     5        -0.5652704        1       114         5.6428577        2
     6        -0.5840169        2       115         6.0193107        2
     7        -0.5840169        3       116         6.2797023        2
     8         0.0621652        1       117         6.4170490        2
     9         0.0725373        1       118         7.1863387        2
    10         0.1563124        1       119         8.0454841        2
    11         0.2272709        1       120        10.0865986        2
    12         0.2281985        1       121        10.8064788        2
    13         0.3000434        1       122        11.2360367        2
    14         0.3846084        1       123        11.8590345        2
    15         0.5090639        1       124        12.5751063        2
    16         0.5422840        1       125        13.4768669        2
    17         0.5786544        1       126        19.1141583        2
    18         0.7613608        1       127        26.8421769        2
    19         0.7680972        1       128        33.7329432        2
    20         0.8350087        1       129        47.3953253        2
    21         0.8707544        1       130        66.6142222        2
    22         0.8826782        1       131        98.6109998        2
    23         1.1320566        1       132        98.6649821        2
    24         1.4290111        1       133       103.2838354        2
    25         1.5417213        1       134       103.3536050        2
    26         1.6577908        1       135       115.2997827        2
    27         1.7451303        1       136       116.9919211        2
    28         1.8266326        1       137       198.7207716        2
    29         2.0569954        1       138       225.0537922        2
    30         2.0952583        1       139       395.4523609        2
    31         2.1695673        1       140         0.0536687        3
    32         2.3004360        1       141         0.1070570        3
    33         2.3402444        1       142         0.1679201        3
    34         2.4885924        1       143         0.3075351        3
    35         2.7448362        1       144         0.3959740        3
    36         2.8861690        1       145         0.6253890        3
    37         3.4334012        1       146         0.7452186        3
    38         3.7054867        1       147         0.8066471        3
    39         3.9027537        1       148         0.8923437        3
    40         4.1977943        1       149         1.0485920        3
    41         4.2278834        1       150         1.4370115        3
    42         4.3207251        1       151         1.5694959        3
    43         4.3883346        1       152         1.7021356        3
    44         5.0286486        1       153         2.0380713        3
    45         5.1835087        1       154         2.2389506        3
    46         5.3796906        1       155         2.2941423        3
    47         5.8788282        1       156         2.3115485        3
    48         6.2276166        1       157         2.5577955        3
    49         6.2479461        1       158         2.7197195        3
    50         6.5459269        1       159         3.6750881        3
    51         6.6345857        1       160         4.0840185        3
    52         6.8688703        1       161         4.1529739        3
    53         7.5318284        1       162         4.1896960        3
    54         8.2022870        1       163         4.8874502        3
    55        10.2285529        1       164         4.9072963        3
    56        10.6124902        1       165         5.6428577        3
    57        10.9086846        1       166         6.0193107        3
    58        11.0407274        1       167         6.2797023        3
    59        11.5180884        1       168         6.4170490        3
    60        12.1548335        1       169         7.1863387        3
    61        12.8022551        1       170         8.0454841        3
    62        12.9987116        1       171        10.0865986        3
    63        14.6210871        1       172        10.8064788        3
    64        17.7833213        1       173        11.2360367        3
    65        20.5137976        1       174        11.8590345        3
    66        26.4115899        1       175        12.5751063        3
    67        27.5974237        1       176        13.4768669        3
    68        34.6353960        1       177        19.1141583        3
    69        36.3297235        1       178        26.8421769        3
    70        47.0935768        1       179        33.7329432        3
    71        48.1334461        1       180        47.3953253        3
    72        64.0379727        1       181        66.6142222        3
    73        67.6586740        1       182        98.6109998        3
    74        98.6263828        1       183        98.6649821        3
    75        98.6862514        1       184       103.2838354        3
    76       103.3147907        1       185       103.3536050        3
    77       103.3748204        1       186       115.2997827        3
    78       115.0905805        1       187       116.9919211        3
    79       115.6739532        1       188       198.7207716        3
    80       117.7048741        1       189       225.0537922        3
    81       122.5385775        1       190       395.4523609        3
    82       198.5597201        1       191         0.2272709        4
    83       199.0992629        1       192         0.5422840        4
    84       216.5414882        1       193         0.7613608        4
    85       225.8910765        1       194         0.8826782        4
    86       396.0367383        1       195         1.5417213        4
    87       509.1298824        1       196         1.7451303        4
    88       895.3725282        1       197         2.0952583        4
    89         0.0536687        2       198         2.1695673        4
    90         0.1070570        2       199         2.3402444        4
    91         0.1679201        2       200         2.8861690        4
    92         0.3075351        2       201         3.7054867        4
    93         0.3959740        2       202         4.1977943        4
    94         0.6253890        2       203         4.3207251        4
    95         0.7452186        2       204         5.0286486        4
    96         0.8066471        2       205         5.8788282        4
    97         0.8923437        2       206         6.2479461        4
    98         1.0485920        2       207         6.5459269        4
    99         1.4370115        2       208         6.8688703        4
   100         1.5694959        2       209        10.6124902        4
   101         1.7021356        2       210        11.0407274        4
   102         2.0380713        2       211        12.1548335        4
   103         2.2389506        2       212        12.8022551        4
   104         2.2941423        2       213        26.4115899        4
   105         2.3115485        2       214        47.0935768        4
   106         2.5577955        2       215        98.6263828        4
   107         2.7197195        2       216       103.3147907        4
   108         3.6750881        2       217       115.0905805        4
   109         4.0840185        2       218       198.5597201        4
------------------------------------------------------------------------
  -20.6661400596503       -11.4221555765039       -1.42856948801549     
 -0.794677361074284      -0.565270422436328      -0.584016880297982     
 -0.584016880297988       6.216520814148675E-002  7.253726460898001E-002
  0.156312353163959       0.227270915776800       0.228198530433741     
  0.300043403803463       0.384608361489325       0.509063856987448     
  0.542283965955968       0.578654406599369       0.761360821520811     
  0.768097224900187       0.835008689700753       0.870754428507056     
  0.882678244461440        1.13205656466298        1.42901108928236     
   1.54172134792551        1.65779084022492        1.74513033819690     
   1.82663260502341        2.05699544899286        2.09525826003759     
   2.16956729365479        2.30043595828754        2.34024440975604     
   2.48859236115849        2.74483616469630        2.88616896423013     
   3.43340120407632        3.70548670333714        3.90275365935500     
   4.19779428028347        4.22788341333142        4.32072510129910     
   4.38833463053126        5.02864856618238        5.18350866064645     
   5.37969057960667        5.87882818076045        6.22761656289426     
   6.24794614054604        6.54592691450843        6.63458565394799     
   6.86887034357907        7.53182842954426        8.20228704093990     
   10.2285528891851        10.6124901964138        10.9086845819998     
   11.0407274421748        11.5180884172731        12.1548335342146     
   12.8022550674385        12.9987116438690        14.6210870658253     
   17.7833213072895        20.5137975919967        26.4115899196003     
   27.5974236710754        34.6353960044998        36.3297234793330     
[...]
 Convergence information after    10 iterations: 
 Largest element of residual vector : -0.77640311E-05.
 Largest element of DIIS residual   : -0.59604322E-05.
 Convergence information after    11 iterations: 
 Largest element of residual vector : -0.37820575E-05.
 Largest element of DIIS residual   : -0.13320190E-05.
 Convergence information after    12 iterations: 
 Largest element of residual vector : -0.19272493E-05.
 Largest element of DIIS residual   :  0.76564264E-06.
 Convergence information after    13 iterations: 
 Largest element of residual vector :  0.65394752E-06.
 Largest element of DIIS residual   :  0.18606460E-06.
 Convergence information after    14 iterations: 
 Largest element of residual vector :  0.25410359E-06.
 Largest element of DIIS residual   :  0.10003148E-06.
 Convergence information after    15 iterations: 
 Largest element of residual vector :  0.61783906E-07.
 Largest element of DIIS residual   :  0.36630966E-07.
 Perturbed amplitude equations converged in    15 iterations.
  Dominant contributions to perturbed wavefunction:
    7    7  141   28  -0.2180362292 ABAB
    7    7   28  141  -0.2180362292 ABAB
    7    7  140   28  -0.1983506295 ABAB
    7    7   28  140  -0.1983506295 ABAB
    7    7  141   39   0.1770505086 ABAB
    7    7   39  141   0.1770505086 ABAB
    7    7  140   39   0.1550579452 ABAB
    7    7   39  140   0.1550579452 ABAB
    7    7  141   37  -0.1409739607 ABAB
    7    7   37  141  -0.1409739607 ABAB
    7    6   28   90  -0.1399208637 ABAB
    6    7   90   28  -0.1399208637 ABAB
    7    7  141   45   0.1378536851 ABAB
    7    7   45  141   0.1378536851 ABAB
    7    7  141   54  -0.1375317250 ABAB
    7    7   54  141  -0.1375317250 ABAB
    7    6   28   89  -0.1293839959 ABAB
    6    7   89   28  -0.1293839959 ABAB
    7    7  141   20  -0.1284875882 ABAB
    7    7   20  141  -0.1284875882 ABAB
  norm of converged amps    2.11793435084941     
 Starting iterative solution of the perturbed Lambda equations.
 The DIIS procedure is used to accelerate convergence.
 Convergence criterion is 10**(-7).
 Maximum number of iterations is 100.
 Convergence information after     1 iterations: 
 Largest element of residual vector :  0.59630990E-01.
 Largest element of DIIS residual   :  0.59630990E-01.
 Convergence information after     2 iterations: 
 Largest element of residual vector : -0.10653462E-01.
 Largest element of DIIS residual   :  0.67661776E-02.
 Convergence information after     3 iterations: 
 Largest element of residual vector : -0.48667564E-02.
 Largest element of DIIS residual   : -0.43159155E-02.
 Convergence information after     4 iterations: 
 Largest element of residual vector : -0.29965925E-02.
 Largest element of DIIS residual   : -0.24813331E-02.
 Convergence information after     5 iterations: 
 Largest element of residual vector : -0.19840134E-02.
 Largest element of DIIS residual   : -0.10578034E-02.
 Convergence information after     6 iterations: 
 Largest element of residual vector : -0.70911658E-03.
 Largest element of DIIS residual   : -0.23344920E-03.
 Convergence information after     7 iterations: 
 Largest element of residual vector : -0.21416631E-03.
 Largest element of DIIS residual   :  0.10367160E-03.
 Convergence information after     8 iterations: 
 Largest element of residual vector :  0.63636247E-04.
 Largest element of DIIS residual   :  0.33617835E-04.
 Convergence information after     9 iterations: 
 Largest element of residual vector :  0.20288142E-04.
 Largest element of DIIS residual   : -0.66355960E-05.
 Convergence information after    10 iterations: 
 Largest element of residual vector : -0.56379711E-05.
 Largest element of DIIS residual   : -0.49148689E-05.
 Convergence information after    11 iterations: 
 Largest element of residual vector : -0.27151255E-05.
 Largest element of DIIS residual   : -0.12703787E-05.
 Convergence information after    12 iterations: 
 Largest element of residual vector : -0.15684615E-05.
 Largest element of DIIS residual   :  0.11096691E-05.
 Convergence information after    13 iterations: 
 Largest element of residual vector :  0.84129576E-06.
 Largest element of DIIS residual   :  0.47688059E-06.
 Convergence information after    14 iterations: 
 Largest element of residual vector :  0.47913151E-06.
 Largest element of DIIS residual   :  0.25803990E-06.
 Convergence information after    15 iterations: 
 Largest element of residual vector :  0.17026623E-06.
 Largest element of DIIS residual   :  0.86412559E-07.
 Perturbed Lambda equations converged in    15 iterations.
  Dominant contributions to perturbed wavefunction:
    7    7  141   28  -0.2010622452 ABAB
    7    7   28  141  -0.2010622452 ABAB
    7    7  140   28  -0.1841249251 ABAB
    7    7   28  140  -0.1841249251 ABAB
    7    7  141   39   0.1616555418 ABAB
    7    7   39  141   0.1616555418 ABAB
    7    7  140   39   0.1424865774 ABAB
    7    7   39  140   0.1424865774 ABAB
    7    7  141   37  -0.1316548000 ABAB
    7    7   37  141  -0.1316548000 ABAB
    7    7  141   54  -0.1285607311 ABAB
    7    7   54  141  -0.1285607311 ABAB
    7    6   28   90  -0.1269972179 ABAB
    6    7   90   28  -0.1269972179 ABAB
    7    7  141   45   0.1234491240 ABAB
    7    7   45  141   0.1234491240 ABAB
    7    6   28   89  -0.1180642159 ABAB
    6    7   89   28  -0.1180642159 ABAB
    7    7  140   37  -0.1174966691 ABAB
    7    7   37  140  -0.1174966691 ABAB
        The DBOC first-order density matrix is being calculated 
             (Symmetry block 3, perturbation   2)
 term   5.13155352788671     
 final tnorm  0.867618892070098     
  norm contr. I: |<0|L dT/dx|0>|^2   0.000000000000000E+000
  norm contr. II: <0|[nabla(1+L)e-T][nabla e^T]|0>   5.13155352788671     
  total norm contribution   5.13155352788671     
 oo  8.212105969076287E-003
 vv  -34.2025524897201     
 vo  5.537799915539756E-002
  Correlated perturbed 1-el contribution to DBOC  -34.1389623845957       cm**-1
  SUM_I |dc_I/dx|^2 contribution to DBOC   17.1670928160835       cm**-1
 
 
  The total diagonal Born-Oppenheimer correction (DBOC) is:      0.0038676326 a.u.
  The total diagonal Born-Oppenheimer correction (DBOC) is:        848.847242 cm-1
 
 Total CC energy including DBOC  -113.244275996092     
 First-order density matrix is being calculated  (Symmetry block 3, perturbation   2)
 Calculation of the contributions of <pq||rs> to dI(i,j)/dx required   1.7 seconds.
 Calculation of the contributions of <pq||rs> to dI(a,b)/dx required  16.1 seconds.
 Calculation of the contributions of <pq||rs> to dI(i,a)/dx required   9.9 seconds.
 First-order Z-vector equations are solved for 1 perturbation.
 Convergence reached after  18 iterations.
        U*G(pq,rs) contribution is being calculated
             (Symmetry block 3, perturbation   2)

 CCSD contribution to force constants 

        0.0000000000        0.0000000000        0.0000000000
        0.0000000000        0.0000000000        0.0000000000
        0.0000000000        0.0000000000        0.0000000000
        0.0000000000        0.0000000000        0.0000000000
        0.0000000000        0.0000000000        0.0000000000
        0.0000000000        0.0000000000        0.0000000000
        0.0000000000        0.0000000000        0.0000000000
        0.0000000000        0.0000000000        0.0000000000
        0.0000000000        0.0000000000        0.0000000000
        0.0000000000        0.0000000000        0.0000000000
        0.0000000000        0.0000000000        0.0000000000
        0.0000000000        1.4831025225       -1.4831025225

 CCSD contribution to dipole derivatives 

        0.0000000000        0.0000000000        0.0000000000
        0.0000000000        0.0000000000        0.0000000000
        0.0000000000        0.0000000000        0.0000000000
        0.0000000000        0.0000000000       -0.0504004444
        0.0000000000        0.0000000000        0.0000000000
        0.0000000000        0.0000000000        0.0000000000
 @CHECKOUT-I, Total execution time (CPU/WALL):     1235.02/     472.01 seconds.
--executable xsdcc finished with status     0 in      472.18 seconds (walltime).
 --invoking executable--
/nfs/workspaces/public/cfour_mpi/bin/xanti
 @GETMEM-I,  Allocated    3814 MB of main memory.
 CCSD MO derivative gammas will be sorted to Mulliken order.
 @CHECKOUT-I, Total execution time (CPU/WALL):       13.21/      31.29 seconds.
--executable xanti finished with status     0 in       31.43 seconds (walltime).
 --invoking executable--
/nfs/workspaces/public/cfour_mpi/bin/xbcktrn
 @GETMEM-I,  Allocated    3814 MB of main memory.
 CCSD MO derivative gammas will be transformed to the AO basis.
 @CHECKOUT-I, Total execution time (CPU/WALL):       21.86/       8.90 seconds.
--executable xbcktrn finished with status     0 in        8.94 seconds (walltime).
 --invoking executable--
/nfs/workspaces/public/cfour_mpi/bin/xvdint
 @GETMEM-I,  Allocated    3814 MB of main memory.
 One- and two-electron integral derivatives are calculated
 for RHF-CC/MBPT hessians and dipole derivatives.
 Spherical gaussians are used.
  magnet F F
                    8722  records have been written to the Sort file.
  Total length of Sort file :             178609116  words.
 Evaluation of 2el integral derivatives

                      Two-electron integral gradient
                      ------------------------------

                         C #1 z     0.0000000000
                         O #2 z     0.0000000000


 C #1       0.0000000000           -0.2489545763            0.0000000000
 O #2       0.0000000000            0.2489545763            0.0000000000


 Evaluation of 2e integral derivatives required  355.80 seconds.
  contribution to Hessian
        0.0000000000        0.0000000000        0.0000000000
        0.0000000000       -0.2489545763        0.2489545763
 @CHECKOUT-I, Total execution time (CPU/WALL):      355.78/      76.28 seconds.
--executable xvdint finished with status     0 in       76.50 seconds (walltime).
 --invoking executable--
/nfs/workspaces/public/cfour_mpi/bin/xanti
 @GETMEM-I,  Allocated    3814 MB of main memory.
 CCSD MO gammas will be sorted to Mulliken order.
 @CHECKOUT-I, Total execution time (CPU/WALL):       18.51/      53.54 seconds.
--executable xanti finished with status     0 in       53.66 seconds (walltime).
 --invoking executable--
/nfs/workspaces/public/cfour_mpi/bin/xbcktrn
 @GETMEM-I,  Allocated    3814 MB of main memory.
 CCSD MO gammas will be transformed to the AO basis.
 @CHECKOUT-I, Total execution time (CPU/WALL):       42.73/      19.51 seconds.
--executable xbcktrn finished with status     0 in       19.57 seconds (walltime).
 --invoking executable--
/nfs/workspaces/public/cfour_mpi/bin/xvdint
 @GETMEM-I,  Allocated    3814 MB of main memory.
 One- and two-electron integral derivatives are calculated
 for RHF-CC/MBPT hessians and dipole derivatives.
 Spherical gaussians are used.
  magnet F F

                     Kinetic energy integral gradient
                     --------------------------------

                         C #1 z    -1.0985709397
                         O #2 z     1.0985709397


 C #1       0.0000000000            0.0000000000           -1.0985709397
 O #2       0.0000000000            0.0000000000            1.0985709397



                   Nuclear attraction integral gradient
                   ------------------------------------

                         C #1 z    19.9520163481
                         O #2 z   -19.9520163481


 C #1       0.0000000000            0.0000000000           19.9520163481
 O #2       0.0000000000            0.0000000000          -19.9520163481



                      Reorthonormalization gradient
                      -----------------------------

                         C #1 z     0.0000000000
                         O #2 z     0.0000000000


 C #1       0.0000000000            0.0000000000            0.0000000000
 O #2       0.0000000000            0.0000000000            0.0000000000



                     Kinetic energy integral Hessian
                     -------------------------------


           Symmetry 1

           C #1 z      O #2 z

 C #1 z    1.002695
 O #2 z   -1.002695    1.002695


           Symmetry 2

           C #1 x      O #2 x

 C #1 x   -1.195356
 O #2 x    1.195356   -1.195356


           Symmetry 3

           C #1 y      O #2 y

 C #1 y   -1.195356
 O #2 y    1.195356   -1.195356




           C #1 x      C #1 y      C #1 z      O #2 x      O #2 y      O #2 z

 C #1 x   -1.195356
 C #1 y    0.000000   -1.195356
 C #1 z    0.000000    0.000000    1.002695

 O #2 x    1.195356    0.000000    0.000000   -1.195356
 O #2 y    0.000000    1.195356    0.000000    0.000000   -1.195356
 O #2 z    0.000000    0.000000   -1.002695    0.000000    0.000000    1.002695




                   Nuclear attraction integral Hessian
                   -----------------------------------


           Symmetry 1

           C #1 z      O #2 z

 C #1 z  -12.128807
 O #2 z   12.128807  -12.128807


           Symmetry 2

           C #1 x      O #2 x

 C #1 x   14.898368
 O #2 x  -14.898368   14.898368


           Symmetry 3

           C #1 y      O #2 y

 C #1 y   14.898368
 O #2 y  -14.898368   14.898368




           C #1 x      C #1 y      C #1 z      O #2 x      O #2 y      O #2 z

 C #1 x   14.898368
 C #1 y    0.000000   14.898368
 C #1 z    0.000000    0.000000  -12.128807

 O #2 x  -14.898368    0.000000    0.000000   14.898368
 O #2 y    0.000000  -14.898368    0.000000    0.000000   14.898368
 O #2 z    0.000000    0.000000   12.128807    0.000000    0.000000  -12.128807




                Highest order reorthonormalization Hessian
                ------------------------------------------


           Symmetry 1

           C #1 z      O #2 z

 C #1 z    0.000000
 O #2 z    0.000000    0.000000


           Symmetry 2

           C #1 x      O #2 x

 C #1 x    0.000000
 O #2 x    0.000000    0.000000


           Symmetry 3

           C #1 y      O #2 y

 C #1 y    0.000000
 O #2 y    0.000000    0.000000




           C #1 x      C #1 y      C #1 z      O #2 x      O #2 y      O #2 z




                Electronic contributions to dipole moment
                -----------------------------------------

                               au             Debye

                    z     -0.82615726     -2.09988267

  Conversion factor used: 1 a.u. =   2.54174691 Debye 



   Electronic contributions to static part of dipole moment derivatives
   --------------------------------------------------------------------


                     Total dipole moment derivatives
                     -------------------------------


           Symmetry 1
                              Ez

               C #1 z    -5.64600570
               O #2 z    -8.35399430

           Symmetry 2
                              Ex

               C #1 x    -5.71780328
               O #2 x    -8.28219672

           Symmetry 3
                              Ey

               C #1 y    -5.71780328
               O #2 y    -8.28219672



                       Ex          Ey          Ez

      C #1    x   -5.717803    0.000000    0.000000
      C #1    y    0.000000   -5.717803    0.000000
      C #1    z    0.000000    0.000000   -5.646006

      O #2    x   -8.282197    0.000000    0.000000
      O #2    y    0.000000   -8.282197    0.000000
      O #2    z    0.000000    0.000000   -8.353994

 Evaluation of 1e integral derivatives required    1.93 seconds.
                    8815  records have been written to the Sort file.
  Total length of Sort file :             180513570  words.
 Evaluation of 2el integral derivatives

                      Two-electron integral gradient
                      ------------------------------

                         C #1 z    -9.8934105315
                         O #2 z     9.8934105315


 C #1       0.0000000000            0.0000000000           -9.8934105315
 O #2       0.0000000000            0.0000000000            9.8934105315


 Evaluation of 2e integral derivatives required  706.84 seconds.

                            Molecular gradient
                            ------------------

                         C #1 z     0.6579611707
                         O #2 z    -0.6579611707


 C #1       0.0000000000            0.0000000000            0.6579611707
 O #2       0.0000000000            0.0000000000           -0.6579611707


  Molecular gradient norm 0.930E+00

                            Molecular hessian
                            -----------------


           Symmetry 1

           C #1 z      O #2 z

 C #1 z   44.479644
 O #2 z  -44.479644   44.479644


           Symmetry 2

           C #1 x      O #2 x

 C #1 x   -0.957519
 O #2 x    0.957519   -0.957519


           Symmetry 3

           C #1 y      O #2 y

 C #1 y   -0.957519
 O #2 y    0.957519   -0.957519




           C #1 x      C #1 y      C #1 z      O #2 x      O #2 y      O #2 z

 C #1 x   -0.957519
 C #1 y    0.000000   -0.957519
 C #1 z    0.000000    0.000000   44.479644

 O #2 x    0.957519    0.000000    0.000000   -0.957519
 O #2 y    0.000000    0.957519    0.000000    0.000000   -0.957519
 O #2 z    0.000000    0.000000  -44.479644    0.000000    0.000000   44.479644




                           Total dipole moment
                           -------------------

                               au             Debye

                    z      0.13527147      0.34382584

  Conversion factor used: 1 a.u. =   2.54174691 Debye 



                     Total dipole moment derivatives
                     -------------------------------


           Symmetry 1
                              Ez

               C #1 z     0.70971067
               O #2 z    -0.70971067

           Symmetry 2
                              Ex

               C #1 x     0.05489740
               O #2 x    -0.05489740

           Symmetry 3
                              Ey

               C #1 y     0.05489740
               O #2 y    -0.05489740



                       Ex          Ey          Ez

      C #1    x    0.054897    0.000000    0.000000
      C #1    y    0.000000    0.054897    0.000000
      C #1    z    0.000000    0.000000    0.709711

      O #2    x   -0.054897    0.000000    0.000000
      O #2    y    0.000000   -0.054897    0.000000
      O #2    z    0.000000    0.000000   -0.709711

 @CHECKOUT-I, Total execution time (CPU/WALL):      708.71/     157.91 seconds.
--executable xvdint finished with status     0 in      158.22 seconds (walltime).
 --invoking executable--
/nfs/workspaces/public/cfour_mpi/bin/xjoda
  @GTFLGS-I, Hessian will be transformed to curvilinear coordinates.
  @GTFLGS-I, Hessian will be transformed to curvilinear coordinates.
  igrd and ihes are                      0                     1
  gradient from JOBARC 
   0.000000000000000   0.000000000000000   0.657961170742767
   0.000000000000000   0.000000000000000  -0.657961170742767
 
  @PROJFCM-I, Projecting force constant matrix onto totally symmetric subspace.
  Largest difference between matrix elements of symmetrized
  and unsymmetrized FCM :    -0.1125222138E-10.
  read isotopes from ZMAT file 
 
  Summary of diagonal Born-Oppenheimer correction at the correlated level
  The total diagonal Born-Oppenheimer correction (DBOC) is:      0.0038676326 a.u.
  The total diagonal Born-Oppenheimer correction (DBOC) is:        848.847242 cm-1
  The total diagonal Born-Oppenheimer correction (DBOC) is:            10.154 kJ/mole
  hellooooooo 
  readis is  F
 
 @CHECKOUT-I, Total execution time (CPU/WALL):        0.02/       0.14 seconds.
--executable xjoda finished with status     0 in        0.20 seconds (walltime).
  The final electronic energy is      -113.244275996091972 a.u. 
  This computation required                         3749.32 seconds (walltime).
