 --invoking executable--
/nfs/workspaces/public/cfour_mpi/bin/xjoda


   *************************************************************************
         <<<     CCCCCC     CCCCCC   |||     CCCCCC     CCCCCC   >>>
       <<<      CCC        CCC       |||    CCC        CCC         >>>
      <<<      CCC        CCC        |||   CCC        CCC            >>>
    <<<        CCC        CCC        |||   CCC        CCC              >>>
      <<<      CCC        CCC        |||   CCC        CCC            >>>
       <<<      CCC        CCC       |||    CCC        CCC         >>>
         <<<     CCCCCC     CCCCCC   |||     CCCCCC     CCCCCC   >>>
   *************************************************************************

     ****************************************************************
     * CFOUR Coupled-Cluster techniques for Computational Chemistry *
     ****************************************************************
 

   Department of Chemistry                Institut fuer Physikalische Chemie
   University of Florida                  Universitaet Mainz
   Gainesville, FL 32611, USA             D-55099 Mainz, Germany

   Department of Chemistry                Fakultaet fuer Chemie und Biowiss.
   Johns Hopkins University               Karlsruher Institut fuer Technologie
   Baltimore, MD 21218, USA               D-76131 Karlsruhe, Germany

   Department of Chemistry                Department of Physical Chemistry
   Southern Methodist University          Eotvos Lorand University
   Dallas, TX 75275, USA                  H-1053 Budapest, Hungary

 
                       Version 2.1
 
                     vincent.theory.phys.ucl.ac.uk                     
                     Sun  2 Mar 11:47:24 GMT 2025                      
                     integer*8 version is running
 
********************************************************************************
*                          Input from ZMAT file                                *
********************************************************************************
Carbon Monoxide DBOC calculation                                                
C                                                                               
O 1 r                                                                           
                                                                                
r=1.303448275862069                                                             
                                                                                
                                                                                
*CFOUR(CALC=CCSD,BASIS=AUG-PCVQZ,SCF_CONV=10                                    
CC_CONV=14,DBOC=ON,MEMORY=500000000                                             
ZFIELD=-200)                                                                    
                                                                                
%isotopes                                                                       
12                                                                              
18                                                                              
********************************************************************************
  @GTFLGS-I, Hessian will be transformed to curvilinear coordinates.
    -------------------------------------------------------------------
                    CFOUR Control Parameters 
    -------------------------------------------------------------------
        External           Internal           Value            Units
          Name               Name
    -------------------------------------------------------------------
       ABCDTYPE             IABCDT         STANDARD    [  0]    ***   
       ANHARMONIC           IANHAR         OFF         [  0]    ***   
       ANH_ALGORIT          IANALG         STANDARD    [  0]    ***   
       ANH_DERIVAT          IANDER         SECOND      [  1]    ***   
       ANH_MODE             ANHMOD         VIBRATION   [  0]    ***   
       ANH_STEPSIZ          ICUBST             50000          x 10-6  
       ANH_SYMMETR          IANHSM         ABELIAN     [  0]    ***   
       AO_LADDERS           IAOLAD         SINGLEPASS  [  1]    ***   
       AV_SCF               IAVSCF         OFF         [  0]    ***   
       BASIS                IBASIS         AUG-PCVQZ   [ 52]    ***   
       BOTHVECTORS          BOTHVC         OFF         [  0]    ***   
       BOX_POTENT           IPIAB          OFF         [  0]    ***   
       BREIT                IBREIT         OFF         [  0]    ***   
       BRUCK_CONV           IBRTOL          10D-  4             ***   
       BRUECKNER            IBRKNR         OFF         [  0]    ***   
       BUFFERSIZE           IBUFFS              4096            ***   
       CACHE_RECS           ICHREC             10               ***   
       CALCLEVEL            ICLLVL         CCSD        [ 10]    ***   
       CCORBOPT             ICCORB         OFF         [  0]  x 0.01  
       CC_CONV              ICCCNV          10D- 14             ***   
       CC_EXPORDER          ICCEOR              5               ***   
       CC_EXTRAPOL          ICCEXT         DIIS        [  1]    ***   
       CC_GUESS             ICCGES         MP2         [  0]    ***   
       CC_MAXCYC            ICCCYC            100              cycles 
       CC_PROGRAM           ICCPRO         VCC         [  0]    ***   
       CHARGE               ICHRGE              0               ***   
       CHOLESKY             ICHOLE         OFF         [  0]    ***   
       CIS_CONV             ICISTL              5               ***   
       COMM_SIZE            IPSIZE            ***               ***   
       CONSTANT             ICONST         OLD         [  1]    ***   
       CONTINUUM            ICONTU         NONE        [  0]    ***   
       CONTRACTION          ICNTYP         GENERAL     [  1]    ***   
       COORDINATES          ICOORD         INTERNAL    [  0]    ***   
       CPHF_CONVER          ICPHFT          10D- 16             ***   
       CPHF_MAXCYC          ICPHFC             64              cycles 
       CUBIC                ICUBIC         OFF         [  0]    ***   
       CURVILINEAR          ICURVY         ON          [  1]    ***   
       DBOC                 IDBOC          ON          [  1]    ***   
       DCT                  IDCT           OFF         [  0]    ***   
       DERIV_LEV            IDRLVL         SECOND      [  2]    ***   
       DEVMEM_SIZE          IDVMEM          50000000           MByte  
       DIAG_MRCC            IEOMST          10D-  0             ***   
       DIFF_TYPE            IDIFTY         RELAXED     [  0]    ***   
       DIRECT               IDIRCT         OFF         [  0]    ***   
       DROPMO               IDRPMO      NONE         
       ECP                  IECP           OFF         [  0]    ***   
       EIGENVECTOR          IVEC                1               ***   
       EL_ANHARM            IELANH         OFF         [  0]    ***   
       EOMFOLLOW            IEOMSR         ENERGY      [  0]    ***   
       EOMIP                IEOMIP         OFF         [  0]    ***   
       EOMLEVEL             HBARFM         SAME        [  0]    ***   
       EOM_MRCC             IMRCCE         NEW         [  1]    ***   
       EOM_NONIT            EOMNON         OFF         [  0]    ***   
       EOM_NSING            IEOMSI          10D-  0             ***   
       EOM_NSTATES          IMRCCD         DAVIDSON    [  0]    ***   
       EOM_NTRIP            IEOMTR          10D-  0             ***   
       EOM_ORDER            IEXORD         ENERGY      [  0]    ***   
       EOM_PROPSTA          IEOMST              0               ***   
       ESTATE_CONV          IEXTOL          10D-  5             ***   
       ESTATE_DIAG          IEXDIG         ITERATIVE   [  0]    ***   
       ESTATE_LOCK          IESLOC         ON          [  1]    ***   
       ESTATE_MAXC          IEXMXC             40               ***   
       ESTATE_PROP          IEXPRP         OFF         [  0]    ***   
       EVAL_HESS            IRECAL              0            # of cyc.
       EXCITATION           IEXCIT              0               ***   
       EXCITE               IEXCIT         NONE        [  0]    ***   
       EXTERN_POT           IEXPOT         OFF         [  0]    ***   
       FCGRADNEW            IFCGNW         OFF         [  0]    ***   
       FC_FIELD             IFINFC              0             x 10-6  
       FD_CALTYPE           IFDCAL         GRADONLY    [  0]    ***   
       FD_PROJECT           IFDPRJ         OFF         [  1]    ***   
       FD_STEPSIZE          IDISFD              0            10-4 bohr
       FD_USEGROUP          IFDGRP         FULL        [  0]    ***   
       FILE_RECSIZ          IFLREC              4096           words  
       FINITE_PERT          IFIPER              0             x 10-6  
       FIXGEOM              IFIXGM         OFF         [  0]    ***   
       FOCK                 IFOCK          AO          [  1]    ***   
       FREQ_ALGORI          IVIALG         STANDARD    [  0]    ***   
       FROZEN_CORE          IFROCO         OFF         [  0]    ***   
       GAMMA_ABCD           IGABCD         STORE       [  0]    ***   
       GAMMA_ABCI           IGABCI         STORE       [  0]    ***   
       GENBAS_1             IGNBS1              0               ***   
       GENBAS_2             IGNBS2              0               ***   
       GENBAS_3             IGNBS3              0               ***   
       GENBAS_4             IGNBS4              0               ***   
       GEO_CONV             ICONTL              5              H/bohr 
       GEO_MAXCYC           IOPTCY             50               ***   
       GEO_MAXSTEP          IMXSTP            300            millibohr
       GEO_METHOD           INR            SINGLE_POINT[  5]    ***   
       GIAO                 IGIAO          OFF         [  1]    ***   
       GIMIC                IGIMIC         OFF         [  0]    ***   
       GRID                 IGRID          OFF         [  0]    ***   
       GRID_ALGO            IGALGO         SERIAL      [  0]    ***   
       GUESS                IGUESS         MOREAD      [  0]    ***   
       HBAR                 IHBAR          OFF         [  0]    ***   
       HESS_TYPE            IHESTP         SCF         [  0]    ***   
       HF2_FILE             IHF2Fl         USE         [  1]    ***   
       HFSTABILITY          ISTABL         OFF         [  0]    ***   
       INCORE               INCORE         OFF         [  0]    ***   
       INPUT_MRCC           IMRCC          ON          [  1]    ***   
       INTEGRALS            INTTYP         VMOL        [  1]    ***   
       JODA_PRINT           IJPRNT              0               ***   
       KEYWORD_OUT          IDMPKW         NO          [  0]    ***   
       LINDEP_TOL           ILINDP              8               ***   
       LINEQ_CONV           IZTACN          10D-  7           cycles  
       LINEQ_EXPOR          ILMAXD              5               ***   
       LINEQ_MAXCY          ILMAXC            100               ***   
       LINEQ_TYPE           ILTYPE         DIIS        [  1]    ***   
       LOCK_ORBOCC          ILOCOC         OFF         [  0]    ***   
       MEMORY_SIZE          IMEMSZ         500000000           words  
       MEM_UNIT             IMEMU          INTEGERWORDS[  0]    ***   
       MRCC                 IMRCCC         OFF         [  0]    ***   
       MULTIPLICTY          IMULTP              1               ***   
       NACOUPLING           IVCOUP         OFF         [  0]    ***   
       NEGEVAL              IDIE           ABORT       [  0]    ***   
       NEWNORM              INEWNO         OFF         [  0]    ***   
       NON-HF               INONHF         OFF         [  0]    ***   
       NTOP_TAMP            ITOPT2             15               ***   
       NUC_MODEL            INUCMO         POINT       [  0]    ***   
       OCCUPATION           IOCCU   ESTIMATED BY SCF 
       OPEN-SHELL           IOPEN          SPIN-ORBITAL[  0]    ***   
       OPTVIB               IOPTVB         OFF         [  0]    ***   
       ORBITALS             IORBTP         STANDARD    [  0]    ***   
       PARALLEL             IPARAL         ON          [  1]    ***   
       PARA_INT             IPINTS         ON          [  1]    ***   
       PARA_PRINT           IPPRIN              0               ***   
       PERT_ORB             IPTORB         STANDARD    [  0]    ***   
       POINTS               IGRDFD              0               ***   
       PRINT                IPRNT               0               ***   
       PROPS                IPROPS         OFF         [  0]    ***   
       PROP_INTEGR          IINTYP         INTERNAL    [  0]    ***   
       PSI                  IPSI           OFF         [  0]    ***   
       QC_ALG               IQCALG         FLM         [  0]    ***   
       QC_LINALG            IQCLIN         TRIDIAG     [  2]    ***   
       QC_MAXCYC            IQCMAX          10D-100           cycles  
       QC_MAXSCFCY          IQCMSC          10D- 15           cycles  
       QC_RTRUST            IQCRTR          10D-  0           x 10-3  
       QC_SKIPSCF           IQCSKI         OFF         [  0]    ***   
       QC_START             IQCSTA          10D-  1             ***   
       QRHFGUESS            IQGUES         OFF         [  0]    ***   
       QUARTIC              IQUART         OFF         [  0]    ***   
       RAMAN_INT            IRAMIN         OFF         [  0]    ***   
       RAMAN_ORB            IRAMRE         UNRELAXED   [  0]    ***   
       RDO                  IRDOFM         ON          [  1]    ***   
       REDUCE_REPR          REDREP         Ir          [  0]    ***   
       REFERENCE            IREFNC         RHF         [  0]    ***   
       RELATIVIST           IRELAT         OFF         [  0]    ***   
       RELAX_DENS           IRDENS         ON          [  1]    ***   
       RESET_FLAGS          IRESET         OFF         [  0]    ***   
       RESTART_CC           ICCRES         OFF         [  0]    ***   
       ROT_EVEC             ROTVEC              0               ***   
       SAVE_INTS            ISVINT         OFF         [  0]    ***   
       SCALE_ON             ISTCRT              0               ***   
       SCF_CONV             ISCFCV          10D- 10             ***   
       SCF_DAMPING          IDAMP               0             x 10-3  
       SCF_EXPORDE          IRPPOR              6               ***   
       SCF_EXPSTAR          IRPPLS              8               ***   
       SCF_EXTRAPO          IRPP           ON          [  1]    ***   
       SCF_MAXCYC           ISCFCY            150              cycles 
       SCF_NOSTOP           ISCFST         OFF         [  0]    ***   
       SCF_PRINT            ISCFPR              0               ***   
       SCF_PROG             ISCFPR         SCF         [  0]    ***   
       SD_FIELD             IFINSD              0             x 10-6  
       SOPERT               IPERSO         OFF         [  0]    ***   
       SPHERICAL            IDFGHI         ON          [  1]    ***   
       SPINORBIT            ISOCAL         OFF         [  0]    ***   
       SPINROTATIO          ISRCON         OFF         [  0]    ***   
       SPIN_FLIP            ISPFLP         OFF         [  0]    ***   
       SPIN_ORBIT           ISPORB         OFF         [  0]    ***   
       SPIN_SCAL            ISCSMP         OFF         [  0]    ***   
       STEEPSCALE           ISTPSC              1000          x 10-3  
       SUBGROUP             ISUBGP         DEFAULT     [  0]    ***   
       SUBGRPAXIS           ISBXYZ         X           [  0]    ***   
       SYMMETRY             ISYM           ON          [  0]    ***   
       SYM_CHECK            ISYMCK         OVERRIDE    [  1]    ***   
       T3_EXTRAPOL          IT3EXT         OFF         [  0]    ***   
       T4_EXTRAPOL          IT4EXP         OFF         [  0]    ***   
       TAMP_SUM             IEVERY              5               ***   
       TESTSUITE            ITESTS         OFF         [  0]    ***   
       THERMOCH             ITHERM         OFF         [  0]    ***   
       TOL_CHOLESK          ITOLCH          10D-  4             ***   
       TRANGRAD             IRESRM         OFF         [  0]    ***   
       TRANS_INV            ITRAIN         IGNORE      [  1]    ***   
       TREAT_PERT           ITREAT         SIMULTANEOUS[  0]    ***   
       TRIP_ALGORI          ITRALG         NORMAL      [  0]    ***   
       UIJ_THRESHO          IUIJTH              1               ***   
       UNITS                IUNITS         ANGSTROM    [  0]    ***   
       UNOS                 IUNOS          OFF         [  0]    ***   
       UPDATE_HESS          IHUPDT         ON          [  1]    ***   
       VIBPHASE             ISETPH         STANDARD    [  0]    ***   
       VIBRATION            IVIB           ANALYTIC    [  1]    ***   
       VIB_ALGORIT          IGEALG         STANDARD    [  0]    ***   
       VNATORB              IVNORB         OFF         [  0]    ***   
       VTRAN                IVTRAN         FULL/PARTIAL[  0]    ***   
       XFIELD               IXEFLD              0             x 10-6  
       XFORM_TOL            IXFTOL          10D- 11             ***   
       YFIELD               IYEFLD              0             x 10-6  
       ZFIELD               IZEFLD            ***             x 10-6  
       ZSCALE_EXP           IZEXPS         OFF         [  0]    ***   
    -------------------------------------------------------------------
   2 entries found in Z-matrix 
   Job Title : Carbon Monoxide DBOC calculation                                                
   There are  1 unique internal coordinates.
   Of these,  0 will be optimized.
   User supplied Z-matrix: 
--------------------------------------------------------------------------------
       SYMBOL    BOND      LENGTH    ANGLE     ANGLE     DIHED     ANGLE
                  TO      (ANGST)    WRT      (DEG)      WRT      (DEG)
--------------------------------------------------------------------------------
        C    
        O          1         r    
                  *Initial values for internal coordinates* 
                      Name             Value
                        r               1.3034482759
--------------------------------------------------------------------------------
  read isotopes from ZMAT file 
   Rotational constants (in cm-1): 
          1.3781121419             1.3781121419
   Rotational constants (in MHz): 
      41314.7684293867         41314.7684293867
********************************************************************************
   The full molecular point group is CXv .
   The largest Abelian subgroup of the full molecular point group is C2v .
   The computational point group is C2v .
********************************************************************************
--------------------------------------------------------------------------------
   Analysis of internal coordinates specified by Z-matrix 
--------------------------------------------------------------------------------
   *The nuclear repulsion energy is   19.487156698412697 a.u.
   *There is   1 degree of freedom within the tot. symm. molecular subspace.
   *Z-matrix requests optimization of   0 coordinates.
   *The optimization is constrained.
   *The following   1 parameters can have non-zero 
    derivatives within the totally symmetric subspace:
             r    [ 1]
   *The following   0 parameters are to be optimized:

   *The following coordinates must be varied in an  unconstrained optimization.
             r    [ 1]
--------------------------------------------------------------------------------


 ----------------------------------------------------------------
         Coordinates used in calculation (QCOMP) 
 ----------------------------------------------------------------
 Z-matrix   Atomic            Coordinates (in bohr)
  Symbol    Number           X              Y              Z
 ----------------------------------------------------------------
     C         6        -0.00000000     0.00000000     1.47786889
     O         8         0.00000000     0.00000000    -0.98529189
 ----------------------------------------------------------------
 
   Interatomic distance matrix (Angstroms) 
 
                 C             O    
                [ 1]        [ 2]
  C    [ 1]     0.00000
  O    [ 2]     1.30345     0.00000
 rotcon2
   Rotational constants (in cm-1): 
          1.3781121419             0.0000000000
   Rotational constants (in MHz): 
      41314.7684293867             0.0000000000
  ECPDATA file not present.   Using default ECPDATA. 
  @GTFLGS-I, Hessian will be transformed to curvilinear coordinates.
  There are  218 basis functions.
 @CHECKOUT-I, Total execution time (CPU/WALL):        0.26/       0.34 seconds.
--executable xjoda finished with status     0 in        0.36 seconds (walltime).
 --invoking executable--
/nfs/workspaces/public/cfour_mpi/bin/xvmol
 SERIAL VERSION OF MOLECULE STARTED
********************************************************************************
                    INPUT FROM MOL FILE
********************************************************************************
INTGRL        1    0    1    0    0    0    0    0    0                         
         *** CFOUR Program System (Release V0.1) ***                            
Carbon Monoxide DBOC calculation                                                
    2    2 X  Y       0.10E-08              0    0                              
   9999.00      3.00                                                            
          6.00000000    1    5    1    1    1    1    1                         
C #1  -0.000000000000000   0.000000000000000   1.477868886809093                
   16    9                                                                      
   33980.0000000000       9.100000000000000E-005 -1.900000000000000E-005        
  0.000000000000000E+000  0.000000000000000E+000  0.000000000000000E+000        
  0.000000000000000E+000  0.000000000000000E+000  0.000000000000000E+000        
  0.000000000000000E+000                                                        
   5089.00000000000       7.040000000000000E-004 -1.510000000000000E-004        
  0.000000000000000E+000  0.000000000000000E+000  0.000000000000000E+000        
  0.000000000000000E+000  0.000000000000000E+000  0.000000000000000E+000        
  0.000000000000000E+000                                                        
   1157.00000000000       3.693000000000000E-003 -7.850000000000000E-004        
  0.000000000000000E+000  0.000000000000000E+000  0.000000000000000E+000        
  0.000000000000000E+000  0.000000000000000E+000  0.000000000000000E+000        
  0.000000000000000E+000                                                        
   326.600000000000       1.536000000000000E-002 -3.324000000000000E-003        
  0.000000000000000E+000  0.000000000000000E+000  0.000000000000000E+000        
  0.000000000000000E+000  0.000000000000000E+000  0.000000000000000E+000        
  0.000000000000000E+000                                                        
   106.100000000000       5.292900000000000E-002 -1.151200000000000E-002        
  0.000000000000000E+000  0.000000000000000E+000  0.000000000000000E+000        
  0.000000000000000E+000  0.000000000000000E+000  0.000000000000000E+000        
  0.000000000000000E+000                                                        
   38.1100000000000       0.147043000000000      -3.416000000000000E-002        
  0.000000000000000E+000  0.000000000000000E+000  0.000000000000000E+000        
  0.000000000000000E+000  0.000000000000000E+000  0.000000000000000E+000        
  0.000000000000000E+000                                                        
   14.7500000000000       0.305631000000000      -7.717300000000001E-002        
  0.000000000000000E+000  0.000000000000000E+000  0.000000000000000E+000        
  0.000000000000000E+000  0.000000000000000E+000  0.000000000000000E+000        
  0.000000000000000E+000                                                        
   6.03500000000000       0.399345000000000      -0.141493000000000             
  0.000000000000000E+000  0.000000000000000E+000  0.000000000000000E+000        
  0.000000000000000E+000  0.000000000000000E+000  0.000000000000000E+000        
  0.000000000000000E+000                                                        
   2.53000000000000       0.217051000000000      -0.118019000000000             
  0.000000000000000E+000  0.000000000000000E+000  0.000000000000000E+000        
  0.000000000000000E+000  0.000000000000000E+000  0.000000000000000E+000        
  0.000000000000000E+000                                                        
  0.735500000000000       1.589400000000000E-002  0.273806000000000             
   1.00000000000000       0.000000000000000E+000  0.000000000000000E+000        
  0.000000000000000E+000  0.000000000000000E+000  0.000000000000000E+000        
  0.000000000000000E+000                                                        
  0.290500000000000      -3.084000000000000E-003  0.586510000000000             
  0.000000000000000E+000   1.00000000000000       0.000000000000000E+000        
  0.000000000000000E+000  0.000000000000000E+000  0.000000000000000E+000        
  0.000000000000000E+000                                                        
  0.111100000000000       9.779999999999999E-004  0.285430000000000             
  0.000000000000000E+000  0.000000000000000E+000   1.00000000000000             
  0.000000000000000E+000  0.000000000000000E+000  0.000000000000000E+000        
  0.000000000000000E+000                                                        
   7.21600000000000       0.000000000000000E+000  0.000000000000000E+000        
  0.000000000000000E+000  0.000000000000000E+000  0.000000000000000E+000        
   1.00000000000000       0.000000000000000E+000  0.000000000000000E+000        
  0.000000000000000E+000                                                        
   19.5700000000000       0.000000000000000E+000  0.000000000000000E+000        
  0.000000000000000E+000  0.000000000000000E+000  0.000000000000000E+000        
  0.000000000000000E+000   1.00000000000000       0.000000000000000E+000        
  0.000000000000000E+000                                                        
   53.0730000000000       0.000000000000000E+000  0.000000000000000E+000        
  0.000000000000000E+000  0.000000000000000E+000  0.000000000000000E+000        
  0.000000000000000E+000  0.000000000000000E+000   1.00000000000000             
  0.000000000000000E+000                                                        
  4.145000000000000E-002  0.000000000000000E+000  0.000000000000000E+000        
  0.000000000000000E+000  0.000000000000000E+000  0.000000000000000E+000        
  0.000000000000000E+000  0.000000000000000E+000  0.000000000000000E+000        
   1.00000000000000                                                             
   10    8                                                                      
   34.5100000000000       5.378000000000000E-003  0.000000000000000E+000        
  0.000000000000000E+000  0.000000000000000E+000  0.000000000000000E+000        
  0.000000000000000E+000  0.000000000000000E+000  0.000000000000000E+000        
   7.91500000000000       3.613200000000000E-002  0.000000000000000E+000        
  0.000000000000000E+000  0.000000000000000E+000  0.000000000000000E+000        
  0.000000000000000E+000  0.000000000000000E+000  0.000000000000000E+000        
   2.36800000000000       0.142493000000000       0.000000000000000E+000        
  0.000000000000000E+000  0.000000000000000E+000  0.000000000000000E+000        
  0.000000000000000E+000  0.000000000000000E+000  0.000000000000000E+000        
  0.813200000000000       0.342150000000000        1.00000000000000             
  0.000000000000000E+000  0.000000000000000E+000  0.000000000000000E+000        
  0.000000000000000E+000  0.000000000000000E+000  0.000000000000000E+000        
  0.289000000000000       0.463864000000000       0.000000000000000E+000        
   1.00000000000000       0.000000000000000E+000  0.000000000000000E+000        
  0.000000000000000E+000  0.000000000000000E+000  0.000000000000000E+000        
  0.100700000000000       0.250028000000000       0.000000000000000E+000        
  0.000000000000000E+000   1.00000000000000       0.000000000000000E+000        
  0.000000000000000E+000  0.000000000000000E+000  0.000000000000000E+000        
   8.18200000000000       0.000000000000000E+000  0.000000000000000E+000        
  0.000000000000000E+000  0.000000000000000E+000   1.00000000000000             
  0.000000000000000E+000  0.000000000000000E+000  0.000000000000000E+000        
   24.1860000000000       0.000000000000000E+000  0.000000000000000E+000        
  0.000000000000000E+000  0.000000000000000E+000  0.000000000000000E+000        
   1.00000000000000       0.000000000000000E+000  0.000000000000000E+000        
   71.4940000000000       0.000000000000000E+000  0.000000000000000E+000        
  0.000000000000000E+000  0.000000000000000E+000  0.000000000000000E+000        
  0.000000000000000E+000   1.00000000000000       0.000000000000000E+000        
  3.218000000000000E-002  0.000000000000000E+000  0.000000000000000E+000        
  0.000000000000000E+000  0.000000000000000E+000  0.000000000000000E+000        
  0.000000000000000E+000  0.000000000000000E+000   1.00000000000000             
    6    6                                                                      
   1.84800000000000        1.00000000000000       0.000000000000000E+000        
  0.000000000000000E+000  0.000000000000000E+000  0.000000000000000E+000        
  0.000000000000000E+000                                                        
  0.649000000000000       0.000000000000000E+000   1.00000000000000             
  0.000000000000000E+000  0.000000000000000E+000  0.000000000000000E+000        
  0.000000000000000E+000                                                        
  0.228000000000000       0.000000000000000E+000  0.000000000000000E+000        
   1.00000000000000       0.000000000000000E+000  0.000000000000000E+000        
  0.000000000000000E+000                                                        
   8.65600000000000       0.000000000000000E+000  0.000000000000000E+000        
  0.000000000000000E+000   1.00000000000000       0.000000000000000E+000        
  0.000000000000000E+000                                                        
   33.2130000000000       0.000000000000000E+000  0.000000000000000E+000        
  0.000000000000000E+000  0.000000000000000E+000   1.00000000000000             
  0.000000000000000E+000                                                        
  7.660000000000000E-002  0.000000000000000E+000  0.000000000000000E+000        
  0.000000000000000E+000  0.000000000000000E+000  0.000000000000000E+000        
   1.00000000000000                                                             
    4    4                                                                      
   1.41900000000000        1.00000000000000       0.000000000000000E+000        
  0.000000000000000E+000  0.000000000000000E+000                                
  0.485000000000000       0.000000000000000E+000   1.00000000000000             
  0.000000000000000E+000  0.000000000000000E+000                                
   24.6940000000000       0.000000000000000E+000  0.000000000000000E+000        
   1.00000000000000       0.000000000000000E+000                                
  0.187000000000000       0.000000000000000E+000  0.000000000000000E+000        
  0.000000000000000E+000   1.00000000000000                                     
    2    2                                                                      
   1.01100000000000        1.00000000000000       0.000000000000000E+000        
  0.424000000000000       0.000000000000000E+000   1.00000000000000             
          8.00000000    1    5    1    1    1    1    1                         
O #2   0.000000000000000   0.000000000000000  -0.985291888405989                
   16    9                                                                      
   61420.0000000000       9.000000000000001E-005 -2.000000000000000E-005        
  0.000000000000000E+000  0.000000000000000E+000  0.000000000000000E+000        
  0.000000000000000E+000  0.000000000000000E+000  0.000000000000000E+000        
  0.000000000000000E+000                                                        
   9199.00000000000       6.980000000000001E-004 -1.590000000000000E-004        
  0.000000000000000E+000  0.000000000000000E+000  0.000000000000000E+000        
  0.000000000000000E+000  0.000000000000000E+000  0.000000000000000E+000        
  0.000000000000000E+000                                                        
   2091.00000000000       3.664000000000000E-003 -8.290000000000000E-004        
  0.000000000000000E+000  0.000000000000000E+000  0.000000000000000E+000        
  0.000000000000000E+000  0.000000000000000E+000  0.000000000000000E+000        
  0.000000000000000E+000                                                        
   590.900000000000       1.521800000000000E-002 -3.508000000000000E-003        
  0.000000000000000E+000  0.000000000000000E+000  0.000000000000000E+000        
  0.000000000000000E+000  0.000000000000000E+000  0.000000000000000E+000        
  0.000000000000000E+000                                                        
   192.300000000000       5.242300000000000E-002 -1.215600000000000E-002        
  0.000000000000000E+000  0.000000000000000E+000  0.000000000000000E+000        
  0.000000000000000E+000  0.000000000000000E+000  0.000000000000000E+000        
  0.000000000000000E+000                                                        
   69.3200000000000       0.145921000000000      -3.626100000000000E-002        
  0.000000000000000E+000  0.000000000000000E+000  0.000000000000000E+000        
  0.000000000000000E+000  0.000000000000000E+000  0.000000000000000E+000        
  0.000000000000000E+000                                                        
   26.9700000000000       0.305258000000000      -8.299200000000000E-002        
  0.000000000000000E+000  0.000000000000000E+000  0.000000000000000E+000        
  0.000000000000000E+000  0.000000000000000E+000  0.000000000000000E+000        
  0.000000000000000E+000                                                        
   11.1000000000000       0.398508000000000      -0.152090000000000             
  0.000000000000000E+000  0.000000000000000E+000  0.000000000000000E+000        
  0.000000000000000E+000  0.000000000000000E+000  0.000000000000000E+000        
  0.000000000000000E+000                                                        
   4.68200000000000       0.216980000000000      -0.115331000000000             
  0.000000000000000E+000  0.000000000000000E+000  0.000000000000000E+000        
  0.000000000000000E+000  0.000000000000000E+000  0.000000000000000E+000        
  0.000000000000000E+000                                                        
   1.42800000000000       1.759400000000000E-002  0.288979000000000             
   1.00000000000000       0.000000000000000E+000  0.000000000000000E+000        
  0.000000000000000E+000  0.000000000000000E+000  0.000000000000000E+000        
  0.000000000000000E+000                                                        
  0.554700000000000      -2.502000000000000E-003  0.586128000000000             
  0.000000000000000E+000   1.00000000000000       0.000000000000000E+000        
  0.000000000000000E+000  0.000000000000000E+000  0.000000000000000E+000        
  0.000000000000000E+000                                                        
  0.206700000000000       9.540000000000000E-004  0.277624000000000             
  0.000000000000000E+000  0.000000000000000E+000   1.00000000000000             
  0.000000000000000E+000  0.000000000000000E+000  0.000000000000000E+000        
  0.000000000000000E+000                                                        
   12.9740000000000       0.000000000000000E+000  0.000000000000000E+000        
  0.000000000000000E+000  0.000000000000000E+000  0.000000000000000E+000        
   1.00000000000000       0.000000000000000E+000  0.000000000000000E+000        
  0.000000000000000E+000                                                        
   34.9000000000000       0.000000000000000E+000  0.000000000000000E+000        
  0.000000000000000E+000  0.000000000000000E+000  0.000000000000000E+000        
  0.000000000000000E+000   1.00000000000000       0.000000000000000E+000        
  0.000000000000000E+000                                                        
   93.8810000000000       0.000000000000000E+000  0.000000000000000E+000        
  0.000000000000000E+000  0.000000000000000E+000  0.000000000000000E+000        
  0.000000000000000E+000  0.000000000000000E+000   1.00000000000000             
  0.000000000000000E+000                                                        
  6.959000000000000E-002  0.000000000000000E+000  0.000000000000000E+000        
  0.000000000000000E+000  0.000000000000000E+000  0.000000000000000E+000        
  0.000000000000000E+000  0.000000000000000E+000  0.000000000000000E+000        
   1.00000000000000                                                             
   10    8                                                                      
   63.4200000000000       6.044000000000000E-003  0.000000000000000E+000        
  0.000000000000000E+000  0.000000000000000E+000  0.000000000000000E+000        
  0.000000000000000E+000  0.000000000000000E+000  0.000000000000000E+000        
   14.6600000000000       4.179900000000000E-002  0.000000000000000E+000        
  0.000000000000000E+000  0.000000000000000E+000  0.000000000000000E+000        
  0.000000000000000E+000  0.000000000000000E+000  0.000000000000000E+000        
   4.45900000000000       0.161143000000000       0.000000000000000E+000        
  0.000000000000000E+000  0.000000000000000E+000  0.000000000000000E+000        
  0.000000000000000E+000  0.000000000000000E+000  0.000000000000000E+000        
   1.53100000000000       0.356731000000000        1.00000000000000             
  0.000000000000000E+000  0.000000000000000E+000  0.000000000000000E+000        
  0.000000000000000E+000  0.000000000000000E+000  0.000000000000000E+000        
  0.530200000000000       0.448309000000000       0.000000000000000E+000        
   1.00000000000000       0.000000000000000E+000  0.000000000000000E+000        
  0.000000000000000E+000  0.000000000000000E+000  0.000000000000000E+000        
  0.175000000000000       0.244940000000000       0.000000000000000E+000        
  0.000000000000000E+000   1.00000000000000       0.000000000000000E+000        
  0.000000000000000E+000  0.000000000000000E+000  0.000000000000000E+000        
   14.4750000000000       0.000000000000000E+000  0.000000000000000E+000        
  0.000000000000000E+000  0.000000000000000E+000   1.00000000000000             
  0.000000000000000E+000  0.000000000000000E+000  0.000000000000000E+000        
   42.7300000000000       0.000000000000000E+000  0.000000000000000E+000        
  0.000000000000000E+000  0.000000000000000E+000  0.000000000000000E+000        
   1.00000000000000       0.000000000000000E+000  0.000000000000000E+000        
   126.140000000000       0.000000000000000E+000  0.000000000000000E+000        
  0.000000000000000E+000  0.000000000000000E+000  0.000000000000000E+000        
  0.000000000000000E+000   1.00000000000000       0.000000000000000E+000        
  5.348000000000000E-002  0.000000000000000E+000  0.000000000000000E+000        
  0.000000000000000E+000  0.000000000000000E+000  0.000000000000000E+000        
  0.000000000000000E+000  0.000000000000000E+000   1.00000000000000             
    6    6                                                                      
   3.77500000000000        1.00000000000000       0.000000000000000E+000        
  0.000000000000000E+000  0.000000000000000E+000  0.000000000000000E+000        
  0.000000000000000E+000                                                        
   1.30000000000000       0.000000000000000E+000   1.00000000000000             
  0.000000000000000E+000  0.000000000000000E+000  0.000000000000000E+000        
  0.000000000000000E+000                                                        
  0.444000000000000       0.000000000000000E+000  0.000000000000000E+000        
   1.00000000000000       0.000000000000000E+000  0.000000000000000E+000        
  0.000000000000000E+000                                                        
   14.9270000000000       0.000000000000000E+000  0.000000000000000E+000        
  0.000000000000000E+000   1.00000000000000       0.000000000000000E+000        
  0.000000000000000E+000                                                        
   57.5440000000000       0.000000000000000E+000  0.000000000000000E+000        
  0.000000000000000E+000  0.000000000000000E+000   1.00000000000000             
  0.000000000000000E+000                                                        
  0.154000000000000       0.000000000000000E+000  0.000000000000000E+000        
  0.000000000000000E+000  0.000000000000000E+000  0.000000000000000E+000        
   1.00000000000000                                                             
    4    4                                                                      
   2.66600000000000        1.00000000000000       0.000000000000000E+000        
  0.000000000000000E+000  0.000000000000000E+000                                
  0.859000000000000       0.000000000000000E+000   1.00000000000000             
  0.000000000000000E+000  0.000000000000000E+000                                
   26.4830000000000       0.000000000000000E+000  0.000000000000000E+000        
   1.00000000000000       0.000000000000000E+000                                
  0.324000000000000       0.000000000000000E+000  0.000000000000000E+000        
  0.000000000000000E+000   1.00000000000000                                     
    2    2                                                                      
   1.84600000000000        1.00000000000000       0.000000000000000E+000        
  0.714000000000000       0.000000000000000E+000   1.00000000000000             
FINISH                                                                          
 
********************************************************************************
 ONE- AND TWO-ELECTRON INTEGRALS OVER SYMMETRY-ADAPTED AOS ARE CALCULATED.

  SPHERICAL HARMONICS ARE USED.
  
  INTEGRALS LESS THAN  0.10E-13 ARE NEGLECTED.

  NUCLEAR REPULSION ENERGY :   19.4871566984 A.U.
  @MOLECU-I, ONE ELECTRON INTEGRALS (CPU/WALL):        0.05/       0.07 SECONDS.
  @TWOEL-I,    4525655 INTEGRALS OF SYMMETRY TYPE  I I I I
  @TWOEL-I,   19472774 INTEGRALS OF SYMMETRY TYPE  I J I J
  @TWOEL-I,   10258668 INTEGRALS OF SYMMETRY TYPE  I I J J
  @TWOEL-I,   14415330 INTEGRALS OF SYMMETRY TYPE  I J K L
  @TWOEL-I, TOTAL NUMBER OF 2-E INTEGRALS   48672427.
  @MOLECU-I, TWO ELECTRON INTEGRALS (CPU/WALL):      244.87/      33.33 SECONDS.
 @CHECKOUT-I, Total execution time (CPU/WALL):      244.94/      33.45 seconds.

Running with 14 threads/proc

--executable xvmol finished with status     0 in       33.48 seconds (walltime).
 --invoking executable--
/nfs/workspaces/public/cfour_mpi/bin/xvmol2ja
 @GETMEM-I,  Allocated    3814 MB of main memory.
 @CHECKOUT-I, Total execution time (CPU/WALL):        0.16/       0.07 seconds.
--executable xvmol2ja finished with status     0 in        0.12 seconds (walltime).
 --invoking executable--
/nfs/workspaces/public/cfour_mpi/bin/xvprop
 @GETMEM-I,  Allocated    3814 MB of main memory.
   Property integrals will be calculated.
    --------------------------------------------------------------
                                   Property evaluated at 
    Property type                X             Y             Z
    --------------------------------------------------------------
    Dipole moment               ----          ----          ----  
    Quadrupole moment           ----          ----          ----  
    Octopole moment             ----          ----          ----  
    Relativisitic corr.         ----          ----          ----  
    Second moment            0.0000000     0.0000000     0.0000000
    Electron density         0.0000000     0.0000000     1.4778689
    Electron density         0.0000000     0.0000000    -0.9852919
    Field gradient           0.0000000     0.0000000     1.4778689
    Field gradient           0.0000000     0.0000000    -0.9852919
    Potential                0.0000000     0.0000000     1.4778689
    Potential                0.0000000     0.0000000    -0.9852919
    --------------------------------------------------------------
 @CHECKOUT-I, Total execution time (CPU/WALL):        1.36/       1.38 seconds.
--executable xvprop finished with status     0 in        1.41 seconds (walltime).
 --invoking executable--
/nfs/workspaces/public/cfour_mpi/bin/xvscf
  There are  218 functions in the AO basis.

  There are 4 irreducible representations.

       Irrep        # of functions
         1                 86
         2                 52
         3                 52
         4                 28


  Parameters for SCF calculation: 
        SCF reference function:  RHF  
  Maximum number of iterations:  150
     Full symmetry point group: CXv 
     Computational point group: C2v 
        Initial density matrix: MOREAD                 
     SCF convergence tolerance: 10**(-10)
  DIIS convergence acceleration:  ON
          Latest start for DIIS:   8
                     DIIS order:   6

  Memory information:    2523578 words required.
  Fock matrices are constructed from AO integral file.
 @GETMEM-I,  Allocated      19 MB of main memory.
  Initialization and symmetry analysis required      0.001 seconds.

  Adding electric field perturbation to one-electron Hamiltonian.
  Field direction     : Z
  Field strength      : -0.0002000 a.u.

  @INITGES-I, Occupancies from core Hamiltonian:

          Alpha population by irrep:   5    1    1    0
           Beta population by irrep:   5    1    1    0


 total no. of electrons in initial guess :  0.000000000000000E+000
  --------------------------------------------------------------------
  Iteration         Total Energy            Largest Density Difference
  --------------------------------------------------------------------
       0            19.487353674054923              0.0000000000D+00
   current occupation vector 
     5  1  1  0
     5  1  1  0
       1           -92.817527369712622              0.1790289302D+02
   current occupation vector 
     5  1  1  0
     5  1  1  0
       2           -98.300939045085073              0.1789914517D+02
   current occupation vector 
     5  1  1  0
     5  1  1  0
       3          -103.502179241221171              0.7382332286D+01
   current occupation vector 
     5  1  1  0
     5  1  1  0
       4           -99.342845651529302              0.7058432184D+01
   current occupation vector 
     5  1  1  0
     5  1  1  0
       5          -101.888355225055051              0.6103265627D+01
   current occupation vector 
     5  1  1  0
     5  1  1  0
       6           -98.153265108632723              0.6077321100D+01
   current occupation vector 
     5  1  1  0
     5  1  1  0
       7          -101.899293468502151              0.6260580396D+01
   current occupation vector 
     5  1  1  0
     5  1  1  0
       8           -98.058462423653680              0.6259045815D+01
   current occupation vector 
     5  1  1  0
     5  1  1  0
       9          -109.092223521426035              0.4694240749D+01
   current occupation vector 
     5  1  1  0
     5  1  1  0
      10          -111.168472602950601              0.1133054770D+01
   current occupation vector 
     5  1  1  0
     5  1  1  0
      11          -112.588010503246608              0.9073539495D+00
   current occupation vector 
     5  1  1  0
     5  1  1  0
      12          -112.716633146385561              0.3582672352D+00
   current occupation vector 
     5  1  1  0
     5  1  1  0
      13          -112.718391748222757              0.4468037756D-01
   current occupation vector 
     5  1  1  0
     5  1  1  0
      14          -112.718612448057684              0.1541044984D-01
   current occupation vector 
     5  1  1  0
     5  1  1  0
      15          -112.718646122040013              0.9830517633D-02
   current occupation vector 
     5  1  1  0
     5  1  1  0
      16          -112.718646733414460              0.1222723552D-02
   current occupation vector 
     5  1  1  0
     5  1  1  0
      17          -112.718646780881301              0.3975660655D-03
   current occupation vector 
     5  1  1  0
     5  1  1  0
      18          -112.718646785188668              0.1338163592D-03
   current occupation vector 
     5  1  1  0
     5  1  1  0
      19          -112.718646785276917              0.2107952289D-04
   current occupation vector 
     5  1  1  0
     5  1  1  0
      20          -112.718646785280981              0.3575343315D-05
   current occupation vector 
     5  1  1  0
     5  1  1  0
      21          -112.718646785280839              0.5382712855D-06
   current occupation vector 
     5  1  1  0
     5  1  1  0
      22          -112.718646785280185              0.9957579228D-07
   current occupation vector 
     5  1  1  0
     5  1  1  0
      23          -112.718646785279702              0.2519981357D-07
   current occupation vector 
     5  1  1  0
     5  1  1  0
      24          -112.718646785280185              0.9109289156D-09
   current occupation vector 
     5  1  1  0
     5  1  1  0
      25          -112.718646785280271              0.5464599884D-09
   current occupation vector 
     5  1  1  0
     5  1  1  0

  SCF has converged.

 Density matrix saved to file den.dat
 total electron number:   13.9999999999999     
     E(SCF)=      -112.718646785279816              0.7623501830D-10

  Eigenvector printing suppressed.

 @PUTMOS-I, Writing converged MOs to NEWMOS. 
 @PUTMOS-I, Symmetry   1 Full Blocks 21 Partial Blocksize   2
 @PUTMOS-I, Symmetry   2 Full Blocks 13 Partial Blocksize   0
 @PUTMOS-I, Symmetry   3 Full Blocks 13 Partial Blocksize   0
 @PUTMOS-I, Symmetry   4 Full Blocks  7 Partial Blocksize   0
 @PUTFOCK-I, Writing converged Fock matrix to NEWFOCK. 
 @PUTFOCK-I, Symmetry   1 Full Blocks 21 Partial Blocksize   2
 @PUTFOCK-I, Symmetry   2 Full Blocks 13 Partial Blocksize   0
 @PUTFOCK-I, Symmetry   3 Full Blocks 13 Partial Blocksize   0
 @PUTFOCK-I, Symmetry   4 Full Blocks  7 Partial Blocksize   0


 
  ORBITAL EIGENVALUES (ALPHA)  (1H = 27.2113834 eV)

       MO #        E(hartree)               E(eV)           FULLSYM    COMPSYM
       ----   --------------------   --------------------   -------   ---------
    1     1         -20.6656264558        -562.3402846897     SG+        A1 (1)
    2     2         -11.4344575934        -311.1474095457     SG+        A1 (1)
    3     3          -1.4106937752         -38.3869291782     SG+        A1 (1)
    4     4          -0.7937036031         -21.5977730491     SG+        A1 (1)
    5   139          -0.5735258172         -15.6064309022      PI        B2 (3)
    6    87          -0.5735258172         -15.6064309022      PI        B1 (2)
    7     5          -0.5659792191         -15.4010775266     SG+        A1 (1)
  +++++++++++++++++++++++++++++++++++++++++++++++++++++++++++++++++++++++++++++
    8    88           0.0489410371           1.3317533242      PI        B1 (2)
    9   140           0.0489410371           1.3317533242      PI        B2 (3)
   10     6           0.0631114675           1.7173503403     SG+        A1 (1)
   11     7           0.0700641307           1.9065419217     SG+        A1 (1)
   12   141           0.1010746711           2.7503816269      PI        B2 (3)
   13    89           0.1010746711           2.7503816269      PI        B1 (2)
   14     8           0.1571120230           4.2752354949     SG+        A1 (1)
   15    90           0.1694848733           4.6119178677      PI        B1 (2)
   16   142           0.1694848733           4.6119178677      PI        B2 (3)
   17     9           0.2263561090           6.1594628676      DE        A1 (1)
   18   191           0.2263561090           6.1594628676      DE        A2 (4)
   19    10           0.2277847107           6.1983370967     SG+        A1 (1)
   20    11           0.2995126269           8.1501529227     SG+        A1 (1)
   21    91           0.3040036651           8.2723602853      PI        B1 (2)
   22   143           0.3040036651           8.2723602853      PI        B2 (3)
   23    12           0.3808966707          10.3647253427     SG+        A1 (1)
   24    92           0.3963741420          10.7858887467      PI        B1 (2)
   25   144           0.3963741420          10.7858887467      PI        B2 (3)
   26    13           0.5097317826          13.8705069682     SG+        A1 (1)
   27   192           0.5437200563          14.7953749145      DE        A2 (4)
   28    14           0.5437200563          14.7953749145      DE        A1 (1)
   29    15           0.5579648233          15.1829947312     SG+        A1 (1)
   30    93           0.6260586572          17.0359221529      PI        B1 (2)
   31   145           0.6260586572          17.0359221529      PI        B2 (3)
   32    94           0.7436801409          20.2365654405      PH        B1 (2)
   33   146           0.7436801409          20.2365654405      PH        B2 (3)
   34   193           0.7587906012          20.6477419684      DE        A2 (4)
   35    16           0.7587906012          20.6477419684      DE        A1 (1)
   36    17           0.7606018563          20.6970287262     SG+        A1 (1)
   37    95           0.8025160083          21.8375707870      PI        B1 (2)
   38   147           0.8025160083          21.8375707870      PI        B2 (3)
   39    18           0.8288771966          22.5548951879     SG+        A1 (1)
   40    19           0.8689993551          23.6466746262     SG+        A1 (1)
   41   194           0.8804218948          23.9574977341      DE        A2 (4)
   42    20           0.8804218948          23.9574977341      DE        A1 (1)
   43    96           0.8942947501          24.3349973169      PI        B1 (2)
   44   148           0.8942947501          24.3349973170      PI        B2 (3)
   45    97           1.0434351409          28.3933136725      PI        B1 (2)
   46   149           1.0434351409          28.3933136725      PI        B2 (3)
   47    21           1.1270463507          30.6684903571     SG+        A1 (1)
   48    22           1.4215409043          38.6820945645     SG+        A1 (1)
   49   150           1.4350528848          39.0497742469      PH        B2 (3)
   50    98           1.4350528848          39.0497742469      PH        B1 (2)
   51   195           1.5472249084          42.1021301876      DE        A2 (4)
   52    23           1.5472249084          42.1021301876      DE        A1 (1)
   53    99           1.5697146263          42.7141065236      PI        B1 (2)
   54   151           1.5697146263          42.7141065236      PI        B2 (3)
   55    24           1.6530783152          44.9825478261     SG+        A1 (1)
   56   100           1.6847447483          45.8442352764      PI        B1 (2)
   57   152           1.6847447483          45.8442352764      PI        B2 (3)
   58   196           1.7388020664          47.3152096863      DE        A2 (4)
   59    25           1.7388020664          47.3152096863      DE        A1 (1)
   60    26           1.8398994538          50.0662094542     SG+        A1 (1)
   61    27           2.0434057178          55.6038964294     SG+        A1 (1)
   62   101           2.0518158490          55.8327477330      PI        B1 (2)
   63   153           2.0518158490          55.8327477330      PI        B2 (3)
   64    28           2.0923880301          56.9367729075      PI        A1 (1)
   65   197           2.0923880301          56.9367729075      PI        A2 (4)
   66   198           2.1642839415          58.8931601197      DE        A2 (4)
   67    29           2.1642839415          58.8931601197      DE        A1 (1)
   68   102           2.2355018605          60.8310982164      PH        B1 (2)
   69   154           2.2355018605          60.8310982164      PH        B2 (3)
   70   155           2.2865112239          62.2191335615      PI        B2 (3)
   71   103           2.2865112239          62.2191335615      PI        B1 (2)
   72    30           2.2945871385          62.4388903709     SG+        A1 (1)
   73   104           2.3004496536          62.5984175152      PH        B1 (2)
   74   156           2.3004496536          62.5984175152      PH        B2 (3)
   75   199           2.3339833954          63.5109170220      DE        A2 (4)
   76    31           2.3339833954          63.5109170220      DE        A1 (1)
   77    32           2.4930485845          67.8393008676     SG+        A1 (1)
   78   105           2.5481376330          69.3383500886      PI        B1 (2)
   79   157           2.5481376330          69.3383500886      PI        B2 (3)
   80   106           2.7001569087          73.4750048818      PI        B1 (2)
   81   158           2.7001569087          73.4750048818      PI        B2 (3)
   82    33           2.7059695732          73.6331755246     SG+        A1 (1)
   83    34           2.8596988677          77.8163622964      DE        A1 (1)
   84   200           2.8596988677          77.8163622964      DE        A2 (4)
   85    35           3.3977432462          92.4572941681     SG+        A1 (1)
   86   107           3.6519058657          99.3734106522      PI        B1 (2)
   87   159           3.6519058657          99.3734106522      PI        B2 (3)
   88    36           3.7036090873         100.7803268377      PI        A1 (1)
   89   201           3.7036090873         100.7803268377      PI        A2 (4)
   90    37           3.8993626068         106.1070509094     SG+        A1 (1)
   91   160           4.0752751773         110.8938753096      PH        B2 (3)
   92   108           4.0752751773         110.8938753096      PH        B1 (2)
   93   109           4.1377383157         112.5935837187      PH        B1 (2)
   94   161           4.1377383157         112.5935837187      PH        B2 (3)
   95   110           4.1837658503         113.8460566082      PI        B1 (2)
   96   162           4.1837658503         113.8460566082      PI        B2 (3)
   97   202           4.2046101910         114.4132599545      DE        A2 (4)
   98    38           4.2046101910         114.4132599545      DE        A1 (1)
   99    39           4.2213587283         114.8690108235     SG+        A1 (1)
  100   203           4.3085949465         117.2428290041      DE        A2 (4)
  101    40           4.3085949465         117.2428290041      DE        A1 (1)
  102    41           4.3822044221         119.2458446667     SG+        A1 (1)
  103   111           4.8529394588         132.0551962296      PI        B1 (2)
  104   163           4.8529394588         132.0551962297      PI        B2 (3)
  105   164           4.9395165538         134.4110787570      PI        B2 (3)
  106   112           4.9395165538         134.4110787570      PI        B1 (2)
  107    42           4.9945459874         135.9085057716      DE        A1 (1)
  108   204           4.9945459874         135.9085057717      DE        A2 (4)
  109    43           5.1561779752         140.3067357630     SG+        A1 (1)
  110    44           5.3462825761         145.4797449440     SG+        A1 (1)
  111   113           5.6032583357         152.4724108610      PI        B1 (2)
  112   165           5.6032583357         152.4724108611      PI        B2 (3)
  113   205           5.8735949172         159.8286432270      PI        A2 (4)
  114    45           5.8735949172         159.8286432270      PI        A1 (1)
  115   114           6.0001328989         163.2719167616      PH        B1 (2)
  116   166           6.0001328989         163.2719167616      PH        B2 (3)
  117    46           6.2179981968         169.2003329138     SG+        A1 (1)
  118   206           6.2338851964         169.6326401519      DE        A2 (4)
  119    47           6.2338851964         169.6326401519      DE        A1 (1)
  120   167           6.2656459513         170.4968942300      PI        B2 (3)
  121   115           6.2656459513         170.4968942300      PI        B1 (2)
  122   168           6.4108513103         174.4481329253      PH        B2 (3)
  123   116           6.4108513103         174.4481329253      PH        B1 (2)
  124    48           6.5402661129         177.9696887355      DE        A1 (1)
  125   207           6.5402661129         177.9696887356      DE        A2 (4)
  126    49           6.5426675206         178.0350343626     SG+        A1 (1)
  127    50           6.7846856490         184.6206824432      DE        A1 (1)
  128   208           6.7846856490         184.6206824432      DE        A2 (4)
  129   117           7.1316446046         194.0619156073      PI        B1 (2)
  130   169           7.1316446046         194.0619156073      PI        B2 (3)
  131    51           7.4642890542         203.1136312631     SG+        A1 (1)
  132   118           7.9554997416         216.4801536066      PI        B1 (2)
  133   170           7.9554997416         216.4801536067      PI        B2 (3)
  134    52           8.2433919733         224.3140995013     SG+        A1 (1)
  135   119          10.0657601186         273.9032578010      PI        B1 (2)
  136   171          10.0657601187         273.9032578011      PI        B2 (3)
  137    53          10.0866621973         274.4720322777     SG+        A1 (1)
  138   209          10.6156047598         288.8652911405      PI        A2 (4)
  139    54          10.6156047598         288.8652911405      PI        A1 (1)
  140   120          10.7952922370         293.7548359762      PH        B1 (2)
  141   172          10.7952922370         293.7548359762      PH        B2 (3)
  142    55          10.8675024961         295.7197770230     SG+        A1 (1)
  143   210          11.0288931159         300.1114390534      DE        A2 (4)
  144    56          11.0288931159         300.1114390534      DE        A1 (1)
  145   173          11.1931430436         304.5809068111      PI        B2 (3)
  146   121          11.1931430436         304.5809068111      PI        B1 (2)
  147    57          11.5049420672         313.0653895845     SG+        A1 (1)
  148   122          11.8608702819         322.7506886992      PH        B1 (2)
  149   174          11.8608702819         322.7506886992      PH        B2 (3)
  150    58          12.1294701027         330.0596614031      DE        A1 (1)
  151   211          12.1294701027         330.0596614032      DE        A2 (4)
  152   123          12.5887257864         342.5566438914      PI        B1 (2)
  153   175          12.5887257864         342.5566438914      PI        B2 (3)
  154    59          12.7903193796         348.0422844466      DE        A1 (1)
  155   212          12.7903193796         348.0422844466      DE        A2 (4)
  156    60          12.9800013658         353.2037936978     SG+        A1 (1)
  157   124          13.3595008495         363.5304996490      PI        B1 (2)
  158   176          13.3595008495         363.5304996490      PI        B2 (3)
  159    61          14.4308271815         392.6827712138     SG+        A1 (1)
  160    62          17.7064920941         481.8181450404     SG+        A1 (1)
  161   125          19.0537990844         518.4802321110      PI        B1 (2)
  162   177          19.0537990844         518.4802321115      PI        B2 (3)
  163    63          20.4924595629         557.6281739756     SG+        A1 (1)
  164    64          26.3898102314         718.1032440601      DE        A1 (1)
  165   213          26.3898102314         718.1032440601      DE        A2 (4)
  166   126          26.8196287787         729.7992013426      PI        B1 (2)
  167   178          26.8196287787         729.7992013426      PI        B2 (3)
  168    65          27.4886750899         748.0048770285     SG+        A1 (1)
  169   127          33.7117924441         917.3445092985      PI        B1 (2)
  170   179          33.7117924441         917.3445092987      PI        B2 (3)
  171    66          34.5526998587         940.2267633598     SG+        A1 (1)
  172    67          36.2541636328         986.5259464594     SG+        A1 (1)
  173   214          47.0889402357        1281.3552066522      DE        A2 (4)
  174    68          47.0889402357        1281.3552066522      DE        A1 (1)
  175   128          47.3503204918        1288.4677250164      PI        B1 (2)
  176   180          47.3503204918        1288.4677250164      PI        B2 (3)
  177    69          48.0396920967        1307.2264800601     SG+        A1 (1)
  178    70          64.0020071441        1741.5831547670     SG+        A1 (1)
  179   129          66.5669985331        1811.3801188706      PI        B1 (2)
  180   181          66.5669985331        1811.3801188710      PI        B2 (3)
  181    71          67.6243259803        1840.1514614163     SG+        A1 (1)
  182   130          98.5981506857        2682.9920808395      PH        B1 (2)
  183   182          98.5981506857        2682.9920808395      PH        B2 (3)
  184   215          98.6128515163        2683.3921107762      DE        A2 (4)
  185    72          98.6128515163        2683.3921107762      DE        A1 (1)
  186   183          98.6457711479        2684.2878994929      PI        B2 (3)
  187   131          98.6457711479        2684.2878994930      PI        B1 (2)
  188    73          98.6679312814        2684.8909073836     SG+        A1 (1)
  189   184         103.2846748795        2810.5188874911      PH        B2 (3)
  190   132         103.2846748795        2810.5188874911      PH        B1 (2)
  191    74         103.3116932468        2811.2540946417      DE        A1 (1)
  192   216         103.3116932468        2811.2540946423      DE        A2 (4)
  193   185         103.3531478724        2812.3821323515      PI        B2 (3)
  194   133         103.3531478724        2812.3821323515      PI        B1 (2)
  195    75         103.3676719334        2812.7773521446     SG+        A1 (1)
  196   217         115.0726427536        3131.2858008182      DE        A2 (4)
  197    76         115.0726427536        3131.2858008183      DE        A1 (1)
  198   186         115.2805904268        3136.9443446834      PI        B2 (3)
  199   134         115.2805904268        3136.9443446834      PI        B1 (2)
  200    77         115.6159245628        3146.0692504236     SG+        A1 (1)
  201   135         116.9737779330        3183.0183190805      PI        B1 (2)
  202   187         116.9737779330        3183.0183190807      PI        B2 (3)
  203    78         117.6469914586        3201.3373904357     SG+        A1 (1)
  204    79         122.4526796453        3332.1068141860     SG+        A1 (1)
  205   218         198.5569183776        5403.0084326956      DE        A2 (4)
  206    80         198.5569183776        5403.0084326956      DE        A1 (1)
  207   188         198.6963992481        5406.8039001385      PI        B2 (3)
  208   136         198.6963992481        5406.8039001386      PI        B1 (2)
  209    81         199.0536024111        5416.5238923597     SG+        A1 (1)
  210    82         216.5149559515        5891.6714782296     SG+        A1 (1)
  211   137         225.0126432261        6122.9053046740      PI        B1 (2)
  212   189         225.0126432262        6122.9053046743      PI        B2 (3)
  213    83         225.8518286763        6145.7407017010     SG+        A1 (1)
  214   138         395.4370675472       10760.3896555988      PI        B1 (2)
  215   190         395.4370675472       10760.3896555993      PI        B2 (3)
  216    84         395.9932228020       10775.5234094666     SG+        A1 (1)
  217    85         509.0523010560       13852.0173346857     SG+        A1 (1)
  218    86         895.3477700345       24363.6514467434     SG+        A1 (1)


  VSCF finished.

 @CHECKOUT-I, Total execution time (CPU/WALL):       48.42/      11.03 seconds.
--executable xvscf finished with status     0 in       11.07 seconds (walltime).
 --invoking executable--
/nfs/workspaces/public/cfour_mpi/bin/xvtran
 @GETMEM-I,  Allocated    3814 MB of main memory.
  Full RHF integral transformation
  Transformation of IIII integrals :
  1 pass through the AO integral file was required.
     4525655 AO integrals were read.
     8760167 MO integrals were written to HF2.
  Transformation of IIJJ integrals :
  1 pass through the AO integral file was required.
    10258668 AO integrals were read.
    14545407 MO integrals were written to HF2.
  Transformation of IJIJ integrals :
  1 pass through the AO integral file was required.
    19472774 AO integrals were read.
    27221910 MO integrals were written to HF2.
  Transformation of IJKL integrals :
  1 pass through the AO integral file was required.
    14415330 AO integrals were read.
    18396189 MO integrals were written to HF2.
  Summary of active molecular orbitals: 
------------------------------------------------------------------------
 
  Index      Eigenvalue    Symmetry    Index      Eigenvalue    Symmetry
------------------------------------------------------------------------
     1       -20.6656265        1       110         4.1377383        2
     2       -11.4344576        1       111         4.1837659        2
     3        -1.4106938        1       112         4.8529395        2
     4        -0.7937036        1       113         4.9395166        2
     5        -0.5659792        1       114         5.6032583        2
     6        -0.5735258        2       115         6.0001329        2
     7        -0.5735258        3       116         6.2656460        2
     8         0.0631115        1       117         6.4108513        2
     9         0.0700641        1       118         7.1316446        2
    10         0.1571120        1       119         7.9554997        2
    11         0.2263561        1       120        10.0657601        2
    12         0.2277847        1       121        10.7952922        2
    13         0.2995126        1       122        11.1931430        2
    14         0.3808967        1       123        11.8608703        2
    15         0.5097318        1       124        12.5887258        2
    16         0.5437201        1       125        13.3595008        2
    17         0.5579648        1       126        19.0537991        2
    18         0.7587906        1       127        26.8196288        2
    19         0.7606019        1       128        33.7117924        2
    20         0.8288772        1       129        47.3503205        2
    21         0.8689994        1       130        66.5669985        2
    22         0.8804219        1       131        98.5981507        2
    23         1.1270464        1       132        98.6457711        2
    24         1.4215409        1       133       103.2846749        2
    25         1.5472249        1       134       103.3531479        2
    26         1.6530783        1       135       115.2805904        2
    27         1.7388021        1       136       116.9737779        2
    28         1.8398995        1       137       198.6963992        2
    29         2.0434057        1       138       225.0126432        2
    30         2.0923880        1       139       395.4370675        2
    31         2.1642839        1       140         0.0489410        3
    32         2.2945871        1       141         0.1010747        3
    33         2.3339834        1       142         0.1694849        3
    34         2.4930486        1       143         0.3040037        3
    35         2.7059696        1       144         0.3963741        3
    36         2.8596989        1       145         0.6260587        3
    37         3.3977432        1       146         0.7436801        3
    38         3.7036091        1       147         0.8025160        3
    39         3.8993626        1       148         0.8942948        3
    40         4.2046102        1       149         1.0434351        3
    41         4.2213587        1       150         1.4350529        3
    42         4.3085949        1       151         1.5697146        3
    43         4.3822044        1       152         1.6847447        3
    44         4.9945460        1       153         2.0518158        3
    45         5.1561780        1       154         2.2355019        3
    46         5.3462826        1       155         2.2865112        3
    47         5.8735949        1       156         2.3004497        3
    48         6.2179982        1       157         2.5481376        3
    49         6.2338852        1       158         2.7001569        3
    50         6.5402661        1       159         3.6519059        3
    51         6.5426675        1       160         4.0752752        3
    52         6.7846856        1       161         4.1377383        3
    53         7.4642891        1       162         4.1837659        3
    54         8.2433920        1       163         4.8529395        3
    55        10.0866622        1       164         4.9395166        3
    56        10.6156048        1       165         5.6032583        3
    57        10.8675025        1       166         6.0001329        3
    58        11.0288931        1       167         6.2656460        3
    59        11.5049421        1       168         6.4108513        3
    60        12.1294701        1       169         7.1316446        3
    61        12.7903194        1       170         7.9554997        3
    62        12.9800014        1       171        10.0657601        3
    63        14.4308272        1       172        10.7952922        3
    64        17.7064921        1       173        11.1931430        3
    65        20.4924596        1       174        11.8608703        3
    66        26.3898102        1       175        12.5887258        3
    67        27.4886751        1       176        13.3595008        3
    68        34.5526999        1       177        19.0537991        3
    69        36.2541636        1       178        26.8196288        3
    70        47.0889402        1       179        33.7117924        3
    71        48.0396921        1       180        47.3503205        3
    72        64.0020071        1       181        66.5669985        3
    73        67.6243260        1       182        98.5981507        3
    74        98.6128515        1       183        98.6457711        3
    75        98.6679313        1       184       103.2846749        3
    76       103.3116932        1       185       103.3531479        3
    77       103.3676719        1       186       115.2805904        3
    78       115.0726428        1       187       116.9737779        3
    79       115.6159246        1       188       198.6963992        3
    80       117.6469915        1       189       225.0126432        3
    81       122.4526796        1       190       395.4370675        3
    82       198.5569184        1       191         0.2263561        4
    83       199.0536024        1       192         0.5437201        4
    84       216.5149560        1       193         0.7587906        4
    85       225.8518287        1       194         0.8804219        4
    86       395.9932228        1       195         1.5472249        4
    87       509.0523011        1       196         1.7388021        4
    88       895.3477700        1       197         2.0923880        4
    89         0.0489410        2       198         2.1642839        4
    90         0.1010747        2       199         2.3339834        4
    91         0.1694849        2       200         2.8596989        4
    92         0.3040037        2       201         3.7036091        4
    93         0.3963741        2       202         4.2046102        4
    94         0.6260587        2       203         4.3085949        4
    95         0.7436801        2       204         4.9945460        4
    96         0.8025160        2       205         5.8735949        4
    97         0.8942948        2       206         6.2338852        4
    98         1.0434351        2       207         6.5402661        4
    99         1.4350529        2       208         6.7846856        4
   100         1.5697146        2       209        10.6156048        4
   101         1.6847447        2       210        11.0288931        4
   102         2.0518158        2       211        12.1294701        4
   103         2.2355019        2       212        12.7903194        4
   104         2.2865112        2       213        26.3898102        4
   105         2.3004497        2       214        47.0889402        4
   106         2.5481376        2       215        98.6128515        4
   107         2.7001569        2       216       103.3116932        4
   108         3.6519059        2       217       115.0726428        4
   109         4.0752752        2       218       198.5569184        4
------------------------------------------------------------------------
  -20.6656264557916       -11.4344575934245       -1.41069377524590     
 -0.793703603070141      -0.565979219070923      -0.573525817222047     
 -0.573525817222055       6.311146754515788E-002  7.006413065071018E-002
  0.157112023009215       0.226356109025325       0.227784710742030     
  0.299512626862918       0.380896670719945       0.509731782625801     
  0.543720056308438       0.557964823324058       0.758790601158019     
  0.760601856287641       0.828877196590355       0.868999355107664     
  0.880421894834774        1.12704635065045        1.42154090425786     
   1.54722490836567        1.65307831523607        1.73880206642997     
   1.83989945377899        2.04340571782200        2.09238803005776     
   2.16428394154090        2.29458713851654        2.33398339541839     
   2.49304858449816        2.70596957318397        2.85969886765713     
   3.39774324623544        3.70360908728127        3.89936260680563     
   4.20461019098729        4.22135872825670        4.30859494648620     
   4.38220442209226        4.99454598738111        5.15617797524370     
   5.34628257613615        5.87359491715374        6.21799819680533     
   6.23388519643869        6.54026611287667        6.54266752063056     
   6.78468564899284        7.46428905422905        8.24339197327776     
   10.0866621973260        10.6156047597542        10.8675024961444     
   11.0288931158630        11.5049420671690        12.1294701026898     
   12.7903193795945        12.9800013658191        14.4308271814595     
   17.7064920940567        20.4924595629182        26.3898102314075     
   27.4886750898698        34.5526998586833        36.2541636328351     
   47.0889402356606        48.0396920966582        64.0020071440779     
   67.6243259802912        98.6128515162598        98.6679312814224     
[...]
 Convergence information after    11 iterations: 
 Largest element of residual vector : -0.37407589E-05.
 Largest element of DIIS residual   : -0.16323201E-05.
 Convergence information after    12 iterations: 
 Largest element of residual vector : -0.20680716E-05.
 Largest element of DIIS residual   : -0.96155156E-06.
 Convergence information after    13 iterations: 
 Largest element of residual vector : -0.81737904E-06.
 Largest element of DIIS residual   : -0.26966124E-06.
 Convergence information after    14 iterations: 
 Largest element of residual vector : -0.35528700E-06.
 Largest element of DIIS residual   : -0.15098086E-06.
 Convergence information after    15 iterations: 
 Largest element of residual vector : -0.99533093E-07.
 Largest element of DIIS residual   : -0.60204978E-07.
 Perturbed amplitude equations converged in    15 iterations.
  Dominant contributions to perturbed wavefunction:
    7    7  140   28  -0.2155610273 ABAB
    7    7   28  140  -0.2155610273 ABAB
    7    7  141   28  -0.2011983820 ABAB
    7    7   28  141  -0.2011983820 ABAB
    7    7  140   39   0.1771774457 ABAB
    7    7   39  140   0.1771774457 ABAB
    7    7  141   39   0.1712300712 ABAB
    7    7   39  141   0.1712300712 ABAB
    7    7  140   54  -0.1397069886 ABAB
    7    7   54  140  -0.1397069886 ABAB
    7    6   28   89  -0.1396156254 ABAB
    6    7   89   28  -0.1396156254 ABAB
    7    7  141   54  -0.1355662248 ABAB
    7    7   54  141  -0.1355662248 ABAB
    7    7  141   45   0.1288698239 ABAB
    7    7   45  141   0.1288698239 ABAB
    7    6   28   90  -0.1283156060 ABAB
    6    7   90   28  -0.1283156060 ABAB
    7    7  140   20  -0.1269183005 ABAB
    7    7   20  140  -0.1269183005 ABAB
  norm of converged amps    2.05934158708203     
 Starting iterative solution of the perturbed Lambda equations.
 The DIIS procedure is used to accelerate convergence.
 Convergence criterion is 10**(-7).
 Maximum number of iterations is 100.
 Convergence information after     1 iterations: 
 Largest element of residual vector :  0.61201070E-01.
 Largest element of DIIS residual   :  0.61201070E-01.
 Convergence information after     2 iterations: 
 Largest element of residual vector : -0.11335696E-01.
 Largest element of DIIS residual   :  0.72679720E-02.
 Convergence information after     3 iterations: 
 Largest element of residual vector :  0.46769606E-02.
 Largest element of DIIS residual   :  0.41773883E-02.
 Convergence information after     4 iterations: 
 Largest element of residual vector :  0.28620573E-02.
 Largest element of DIIS residual   :  0.24030323E-02.
 Convergence information after     5 iterations: 
 Largest element of residual vector :  0.19462385E-02.
 Largest element of DIIS residual   :  0.10776516E-02.
 Convergence information after     6 iterations: 
 Largest element of residual vector :  0.71658455E-03.
 Largest element of DIIS residual   :  0.26684365E-03.
 Convergence information after     7 iterations: 
 Largest element of residual vector :  0.23928141E-03.
 Largest element of DIIS residual   :  0.12328306E-03.
 Convergence information after     8 iterations: 
 Largest element of residual vector :  0.77011459E-04.
 Largest element of DIIS residual   :  0.45159502E-04.
 Convergence information after     9 iterations: 
 Largest element of residual vector :  0.27441684E-04.
 Largest element of DIIS residual   : -0.78871743E-05.
 Convergence information after    10 iterations: 
 Largest element of residual vector : -0.53344863E-05.
 Largest element of DIIS residual   : -0.48440444E-05.
 Convergence information after    11 iterations: 
 Largest element of residual vector : -0.27555554E-05.
 Largest element of DIIS residual   : -0.14958845E-05.
 Convergence information after    12 iterations: 
 Largest element of residual vector : -0.16140570E-05.
 Largest element of DIIS residual   : -0.12428395E-05.
 Convergence information after    13 iterations: 
 Largest element of residual vector : -0.92409276E-06.
 Largest element of DIIS residual   : -0.54931572E-06.
 Convergence information after    14 iterations: 
 Largest element of residual vector : -0.56085046E-06.
 Largest element of DIIS residual   : -0.32481245E-06.
 Convergence information after    15 iterations: 
 Largest element of residual vector : -0.21991101E-06.
 Largest element of DIIS residual   : -0.12910427E-06.
 Convergence information after    16 iterations: 
 Largest element of residual vector : -0.11167024E-06.
 Largest element of DIIS residual   : -0.42009849E-07.
 Perturbed Lambda equations converged in    16 iterations.
  Dominant contributions to perturbed wavefunction:
    7    7  140   28  -0.1988328111 ABAB
    7    7   28  140  -0.1988328111 ABAB
    7    7  141   28  -0.1842954432 ABAB
    7    7   28  141  -0.1842954432 ABAB
    7    7  140   39   0.1617512472 ABAB
    7    7   39  140   0.1617512472 ABAB
    7    7  141   39   0.1552608637 ABAB
    7    7   39  141   0.1552608637 ABAB
    7    7  140   54  -0.1303153053 ABAB
    7    7   54  140  -0.1303153053 ABAB
    7    6   28   89  -0.1265410938 ABAB
    6    7   89   28  -0.1265410938 ABAB
    7    7  141   54  -0.1257308329 ABAB
    7    7   54  141  -0.1257308329 ABAB
    7    6   28   90  -0.1156695021 ABAB
    6    7   90   28  -0.1156695021 ABAB
    7    7  141   45   0.1153634757 ABAB
    7    7   45  141   0.1153634757 ABAB
    7    7  140   20  -0.1147489180 ABAB
    7    7   20  140  -0.1147489180 ABAB
        The DBOC first-order density matrix is being calculated 
             (Symmetry block 3, perturbation   2)
 term   4.81928269353289     
 final tnorm  0.862748384008409     
  norm contr. I: |<0|L dT/dx|0>|^2   0.000000000000000E+000
  norm contr. II: <0|[nabla(1+L)e-T][nabla e^T]|0>   4.81928269353289     
  total norm contribution   4.81928269353289     
 oo  7.849910069989483E-003
 vv  -32.1210087250153     
 vo  5.462629357176225E-002
  Correlated perturbed 1-el contribution to DBOC  -32.0585325213736       cm**-1
  SUM_I |dc_I/dx|^2 contribution to DBOC   16.1224223536250       cm**-1
 
 
  The total diagonal Born-Oppenheimer correction (DBOC) is:      0.0038674856 a.u.
  The total diagonal Born-Oppenheimer correction (DBOC) is:        848.814969 cm-1
 
 Total CC energy including DBOC  -113.230455035360     
 First-order density matrix is being calculated  (Symmetry block 3, perturbation   2)
 Calculation of the contributions of <pq||rs> to dI(i,j)/dx required   3.0 seconds.
 Calculation of the contributions of <pq||rs> to dI(a,b)/dx required  15.8 seconds.
 Calculation of the contributions of <pq||rs> to dI(i,a)/dx required   9.5 seconds.
 First-order Z-vector equations are solved for 1 perturbation.
 Convergence reached after  18 iterations.
        U*G(pq,rs) contribution is being calculated
             (Symmetry block 3, perturbation   2)

 CCSD contribution to force constants 

        0.0000000000        0.0000000000        0.0000000000
        0.0000000000        0.0000000000        0.0000000000
        0.0000000000        0.0000000000        0.0000000000
        0.0000000000        0.0000000000        0.0000000000
        0.0000000000        0.0000000000        0.0000000000
        0.0000000000        0.0000000000        0.0000000000
        0.0000000000        0.0000000000        0.0000000000
        0.0000000000        0.0000000000        0.0000000000
        0.0000000000        0.0000000000        0.0000000000
        0.0000000000        0.0000000000        0.0000000000
        0.0000000000        0.0000000000        0.0000000000
        0.0000000000        1.5236601346       -1.5236601346

 CCSD contribution to dipole derivatives 

        0.0000000000        0.0000000000        0.0000000000
        0.0000000000        0.0000000000        0.0000000000
        0.0000000000        0.0000000000        0.0000000000
        0.0000000000        0.0000000000       -0.0514313314
        0.0000000000        0.0000000000        0.0000000000
        0.0000000000        0.0000000000        0.0000000000
 @CHECKOUT-I, Total execution time (CPU/WALL):     1201.05/     488.58 seconds.
--executable xsdcc finished with status     0 in      488.88 seconds (walltime).
 --invoking executable--
/nfs/workspaces/public/cfour_mpi/bin/xanti
 @GETMEM-I,  Allocated    3814 MB of main memory.
 CCSD MO derivative gammas will be sorted to Mulliken order.
 @CHECKOUT-I, Total execution time (CPU/WALL):       12.20/      27.80 seconds.
--executable xanti finished with status     0 in       27.93 seconds (walltime).
 --invoking executable--
/nfs/workspaces/public/cfour_mpi/bin/xbcktrn
 @GETMEM-I,  Allocated    3814 MB of main memory.
 CCSD MO derivative gammas will be transformed to the AO basis.
 @CHECKOUT-I, Total execution time (CPU/WALL):       34.63/       6.14 seconds.
--executable xbcktrn finished with status     0 in        6.21 seconds (walltime).
 --invoking executable--
/nfs/workspaces/public/cfour_mpi/bin/xvdint
 @GETMEM-I,  Allocated    3814 MB of main memory.
 One- and two-electron integral derivatives are calculated
 for RHF-CC/MBPT hessians and dipole derivatives.
 Spherical gaussians are used.
  magnet F F
                    8722  records have been written to the Sort file.
  Total length of Sort file :             178609116  words.
 Evaluation of 2el integral derivatives

                      Two-electron integral gradient
                      ------------------------------

                         C #1 z     0.0000000000
                         O #2 z     0.0000000000


 C #1       0.0000000000           -0.1948253791            0.0000000000
 O #2       0.0000000000            0.1948253791            0.0000000000


 Evaluation of 2e integral derivatives required  354.06 seconds.
  contribution to Hessian
        0.0000000000        0.0000000000        0.0000000000
        0.0000000000       -0.1948253791        0.1948253791
 @CHECKOUT-I, Total execution time (CPU/WALL):      354.05/      73.38 seconds.
--executable xvdint finished with status     0 in       73.55 seconds (walltime).
 --invoking executable--
/nfs/workspaces/public/cfour_mpi/bin/xanti
 @GETMEM-I,  Allocated    3814 MB of main memory.
 CCSD MO gammas will be sorted to Mulliken order.
 @CHECKOUT-I, Total execution time (CPU/WALL):       16.24/      51.19 seconds.
--executable xanti finished with status     0 in       51.69 seconds (walltime).
 --invoking executable--
/nfs/workspaces/public/cfour_mpi/bin/xbcktrn
 @GETMEM-I,  Allocated    3814 MB of main memory.
 CCSD MO gammas will be transformed to the AO basis.
 @CHECKOUT-I, Total execution time (CPU/WALL):       37.12/       8.79 seconds.
--executable xbcktrn finished with status     0 in        8.85 seconds (walltime).
 --invoking executable--
/nfs/workspaces/public/cfour_mpi/bin/xvdint
 @GETMEM-I,  Allocated    3814 MB of main memory.
 One- and two-electron integral derivatives are calculated
 for RHF-CC/MBPT hessians and dipole derivatives.
 Spherical gaussians are used.
  magnet F F

                     Kinetic energy integral gradient
                     --------------------------------

                         C #1 z    -1.0235064457
                         O #2 z     1.0235064457


 C #1       0.0000000000            0.0000000000           -1.0235064457
 O #2       0.0000000000            0.0000000000            1.0235064457



                   Nuclear attraction integral gradient
                   ------------------------------------

                         C #1 z    19.2196859165
                         O #2 z   -19.2196859165


 C #1       0.0000000000            0.0000000000           19.2196859165
 O #2       0.0000000000            0.0000000000          -19.2196859165



                      Reorthonormalization gradient
                      -----------------------------

                         C #1 z     0.0000000000
                         O #2 z     0.0000000000


 C #1       0.0000000000            0.0000000000            0.0000000000
 O #2       0.0000000000            0.0000000000            0.0000000000



                     Kinetic energy integral Hessian
                     -------------------------------


           Symmetry 1

           C #1 z      O #2 z

 C #1 z    0.961720
 O #2 z   -0.961720    0.961720


           Symmetry 2

           C #1 x      O #2 x

 C #1 x   -1.071096
 O #2 x    1.071096   -1.071096


           Symmetry 3

           C #1 y      O #2 y

 C #1 y   -1.071096
 O #2 y    1.071096   -1.071096




           C #1 x      C #1 y      C #1 z      O #2 x      O #2 y      O #2 z

 C #1 x   -1.071096
 C #1 y    0.000000   -1.071096
 C #1 z    0.000000    0.000000    0.961720

 O #2 x    1.071096    0.000000    0.000000   -1.071096
 O #2 y    0.000000    1.071096    0.000000    0.000000   -1.071096
 O #2 z    0.000000    0.000000   -0.961720    0.000000    0.000000    0.961720




                   Nuclear attraction integral Hessian
                   -----------------------------------


           Symmetry 1

           C #1 z      O #2 z

 C #1 z  -11.778175
 O #2 z   11.778175  -11.778175


           Symmetry 2

           C #1 x      O #2 x

 C #1 x   13.840757
 O #2 x  -13.840757   13.840757


           Symmetry 3

           C #1 y      O #2 y

 C #1 y   13.840757
 O #2 y  -13.840757   13.840757




           C #1 x      C #1 y      C #1 z      O #2 x      O #2 y      O #2 z

 C #1 x   13.840757
 C #1 y    0.000000   13.840757
 C #1 z    0.000000    0.000000  -11.778175

 O #2 x  -13.840757    0.000000    0.000000   13.840757
 O #2 y    0.000000  -13.840757    0.000000    0.000000   13.840757
 O #2 z    0.000000    0.000000   11.778175    0.000000    0.000000  -11.778175




                Highest order reorthonormalization Hessian
                ------------------------------------------


           Symmetry 1

           C #1 z      O #2 z

 C #1 z    0.000000
 O #2 z    0.000000    0.000000


           Symmetry 2

           C #1 x      O #2 x

 C #1 x    0.000000
 O #2 x    0.000000    0.000000


           Symmetry 3

           C #1 y      O #2 y

 C #1 y    0.000000
 O #2 y    0.000000    0.000000




           C #1 x      C #1 y      C #1 z      O #2 x      O #2 y      O #2 z




                Electronic contributions to dipole moment
                -----------------------------------------

                               au             Debye

                    z     -0.81948938     -2.08293459

  Conversion factor used: 1 a.u. =   2.54174691 Debye 



   Electronic contributions to static part of dipole moment derivatives
   --------------------------------------------------------------------


                     Total dipole moment derivatives
                     -------------------------------


           Symmetry 1
                              Ez

               C #1 z    -5.63735093
               O #2 z    -8.36264907

           Symmetry 2
                              Ex

               C #1 x    -5.70695508
               O #2 x    -8.29304492

           Symmetry 3
                              Ey

               C #1 y    -5.70695508
               O #2 y    -8.29304492



                       Ex          Ey          Ez

      C #1    x   -5.706955    0.000000    0.000000
      C #1    y    0.000000   -5.706955    0.000000
      C #1    z    0.000000    0.000000   -5.637351

      O #2    x   -8.293045    0.000000    0.000000
      O #2    y    0.000000   -8.293045    0.000000
      O #2    z    0.000000    0.000000   -8.362649

 Evaluation of 1e integral derivatives required    1.77 seconds.
                    8815  records have been written to the Sort file.
  Total length of Sort file :             180513570  words.
 Evaluation of 2el integral derivatives

                      Two-electron integral gradient
                      ------------------------------

                         C #1 z    -9.6141756071
                         O #2 z     9.6141756071


 C #1       0.0000000000            0.0000000000           -9.6141756071
 O #2       0.0000000000            0.0000000000            9.6141756071


 Evaluation of 2e integral derivatives required  727.47 seconds.

                            Molecular gradient
                            ------------------

                         C #1 z     0.6705606098
                         O #2 z    -0.6705606098


 C #1       0.0000000000            0.0000000000            0.6705606098
 O #2       0.0000000000            0.0000000000           -0.6705606098


  Molecular gradient norm 0.948E+00

                            Molecular hessian
                            -----------------


           Symmetry 1

           C #1 z      O #2 z

 C #1 z   40.893067
 O #2 z  -40.893067   40.893067


           Symmetry 2

           C #1 x      O #2 x

 C #1 x   -1.043106
 O #2 x    1.043106   -1.043106


           Symmetry 3

           C #1 y      O #2 y

 C #1 y   -1.043106
 O #2 y    1.043106   -1.043106




           C #1 x      C #1 y      C #1 z      O #2 x      O #2 y      O #2 z

 C #1 x   -1.043106
 C #1 y    0.000000   -1.043106
 C #1 z    0.000000    0.000000   40.893067

 O #2 x    1.043106    0.000000    0.000000   -1.043106
 O #2 y    0.000000    1.043106    0.000000    0.000000   -1.043106
 O #2 z    0.000000    0.000000  -40.893067    0.000000    0.000000   40.893067




                           Total dipole moment
                           -------------------

                               au             Debye

                    z      0.16538884      0.42037657

  Conversion factor used: 1 a.u. =   2.54174691 Debye 



                     Total dipole moment derivatives
                     -------------------------------


           Symmetry 1
                              Ez

               C #1 z     0.69888972
               O #2 z    -0.69888972

           Symmetry 2
                              Ex

               C #1 x     0.06849715
               O #2 x    -0.06849715

           Symmetry 3
                              Ey

               C #1 y     0.06849715
               O #2 y    -0.06849715



                       Ex          Ey          Ez

      C #1    x    0.068497    0.000000    0.000000
      C #1    y    0.000000    0.068497    0.000000
      C #1    z    0.000000    0.000000    0.698890

      O #2    x   -0.068497    0.000000    0.000000
      O #2    y    0.000000   -0.068497    0.000000
      O #2    z    0.000000    0.000000   -0.698890

 @CHECKOUT-I, Total execution time (CPU/WALL):      729.23/     120.41 seconds.
--executable xvdint finished with status     0 in      120.63 seconds (walltime).
 --invoking executable--
/nfs/workspaces/public/cfour_mpi/bin/xjoda
  @GTFLGS-I, Hessian will be transformed to curvilinear coordinates.
  @GTFLGS-I, Hessian will be transformed to curvilinear coordinates.
  igrd and ihes are                      0                     1
  gradient from JOBARC 
   0.000000000000000   0.000000000000000   0.670560609794399
   0.000000000000000   0.000000000000000  -0.670560609794399
 
  @PROJFCM-I, Projecting force constant matrix onto totally symmetric subspace.
  Largest difference between matrix elements of symmetrized
  and unsymmetrized FCM :    -0.1331601496E-11.
  read isotopes from ZMAT file 
 
  Summary of diagonal Born-Oppenheimer correction at the correlated level
  The total diagonal Born-Oppenheimer correction (DBOC) is:      0.0038674856 a.u.
  The total diagonal Born-Oppenheimer correction (DBOC) is:        848.814969 cm-1
  The total diagonal Born-Oppenheimer correction (DBOC) is:            10.154 kJ/mole
  hellooooooo 
  readis is  F
 
 @CHECKOUT-I, Total execution time (CPU/WALL):        0.01/       0.05 seconds.
--executable xjoda finished with status     0 in        0.08 seconds (walltime).
  The final electronic energy is      -113.230455035360450 a.u. 
  This computation required                         4296.93 seconds (walltime).
