 --invoking executable--
/nfs/workspaces/public/cfour_mpi/bin/xjoda


   *************************************************************************
         <<<     CCCCCC     CCCCCC   |||     CCCCCC     CCCCCC   >>>
       <<<      CCC        CCC       |||    CCC        CCC         >>>
      <<<      CCC        CCC        |||   CCC        CCC            >>>
    <<<        CCC        CCC        |||   CCC        CCC              >>>
      <<<      CCC        CCC        |||   CCC        CCC            >>>
       <<<      CCC        CCC       |||    CCC        CCC         >>>
         <<<     CCCCCC     CCCCCC   |||     CCCCCC     CCCCCC   >>>
   *************************************************************************

     ****************************************************************
     * CFOUR Coupled-Cluster techniques for Computational Chemistry *
     ****************************************************************
 

   Department of Chemistry                Institut fuer Physikalische Chemie
   University of Florida                  Universitaet Mainz
   Gainesville, FL 32611, USA             D-55099 Mainz, Germany

   Department of Chemistry                Fakultaet fuer Chemie und Biowiss.
   Johns Hopkins University               Karlsruher Institut fuer Technologie
   Baltimore, MD 21218, USA               D-76131 Karlsruhe, Germany

   Department of Chemistry                Department of Physical Chemistry
   Southern Methodist University          Eotvos Lorand University
   Dallas, TX 75275, USA                  H-1053 Budapest, Hungary

 
                       Version 2.1
 
                     vincent.theory.phys.ucl.ac.uk                     
                     Mon  3 Mar 07:07:05 GMT 2025                      
                     integer*8 version is running
 
********************************************************************************
*                          Input from ZMAT file                                *
********************************************************************************
Carbon Monoxide DBOC calculation                                                
C                                                                               
O 1 r                                                                           
                                                                                
r=1.5517241379310345                                                            
                                                                                
                                                                                
*CFOUR(CALC=CCSD,BASIS=AUG-PCVQZ,SCF_CONV=10                                    
CC_CONV=14,DBOC=ON,MEMORY=500000000                                             
ZFIELD=-200)                                                                    
                                                                                
%isotopes                                                                       
12                                                                              
18                                                                              
********************************************************************************
  @GTFLGS-I, Hessian will be transformed to curvilinear coordinates.
    -------------------------------------------------------------------
                    CFOUR Control Parameters 
    -------------------------------------------------------------------
        External           Internal           Value            Units
          Name               Name
    -------------------------------------------------------------------
       ABCDTYPE             IABCDT         STANDARD    [  0]    ***   
       ANHARMONIC           IANHAR         OFF         [  0]    ***   
       ANH_ALGORIT          IANALG         STANDARD    [  0]    ***   
       ANH_DERIVAT          IANDER         SECOND      [  1]    ***   
       ANH_MODE             ANHMOD         VIBRATION   [  0]    ***   
       ANH_STEPSIZ          ICUBST             50000          x 10-6  
       ANH_SYMMETR          IANHSM         ABELIAN     [  0]    ***   
       AO_LADDERS           IAOLAD         SINGLEPASS  [  1]    ***   
       AV_SCF               IAVSCF         OFF         [  0]    ***   
       BASIS                IBASIS         AUG-PCVQZ   [ 52]    ***   
       BOTHVECTORS          BOTHVC         OFF         [  0]    ***   
       BOX_POTENT           IPIAB          OFF         [  0]    ***   
       BREIT                IBREIT         OFF         [  0]    ***   
       BRUCK_CONV           IBRTOL          10D-  4             ***   
       BRUECKNER            IBRKNR         OFF         [  0]    ***   
       BUFFERSIZE           IBUFFS              4096            ***   
       CACHE_RECS           ICHREC             10               ***   
       CALCLEVEL            ICLLVL         CCSD        [ 10]    ***   
       CCORBOPT             ICCORB         OFF         [  0]  x 0.01  
       CC_CONV              ICCCNV          10D- 14             ***   
       CC_EXPORDER          ICCEOR              5               ***   
       CC_EXTRAPOL          ICCEXT         DIIS        [  1]    ***   
       CC_GUESS             ICCGES         MP2         [  0]    ***   
       CC_MAXCYC            ICCCYC            100              cycles 
       CC_PROGRAM           ICCPRO         VCC         [  0]    ***   
       CHARGE               ICHRGE              0               ***   
       CHOLESKY             ICHOLE         OFF         [  0]    ***   
       CIS_CONV             ICISTL              5               ***   
       COMM_SIZE            IPSIZE            ***               ***   
       CONSTANT             ICONST         OLD         [  1]    ***   
       CONTINUUM            ICONTU         NONE        [  0]    ***   
       CONTRACTION          ICNTYP         GENERAL     [  1]    ***   
       COORDINATES          ICOORD         INTERNAL    [  0]    ***   
       CPHF_CONVER          ICPHFT          10D- 16             ***   
       CPHF_MAXCYC          ICPHFC             64              cycles 
       CUBIC                ICUBIC         OFF         [  0]    ***   
       CURVILINEAR          ICURVY         ON          [  1]    ***   
       DBOC                 IDBOC          ON          [  1]    ***   
       DCT                  IDCT           OFF         [  0]    ***   
       DERIV_LEV            IDRLVL         SECOND      [  2]    ***   
       DEVMEM_SIZE          IDVMEM          50000000           MByte  
       DIAG_MRCC            IEOMST          10D-  0             ***   
       DIFF_TYPE            IDIFTY         RELAXED     [  0]    ***   
       DIRECT               IDIRCT         OFF         [  0]    ***   
       DROPMO               IDRPMO      NONE         
       ECP                  IECP           OFF         [  0]    ***   
       EIGENVECTOR          IVEC                1               ***   
       EL_ANHARM            IELANH         OFF         [  0]    ***   
       EOMFOLLOW            IEOMSR         ENERGY      [  0]    ***   
       EOMIP                IEOMIP         OFF         [  0]    ***   
       EOMLEVEL             HBARFM         SAME        [  0]    ***   
       EOM_MRCC             IMRCCE         NEW         [  1]    ***   
       EOM_NONIT            EOMNON         OFF         [  0]    ***   
       EOM_NSING            IEOMSI          10D-  0             ***   
       EOM_NSTATES          IMRCCD         DAVIDSON    [  0]    ***   
       EOM_NTRIP            IEOMTR          10D-  0             ***   
       EOM_ORDER            IEXORD         ENERGY      [  0]    ***   
       EOM_PROPSTA          IEOMST              0               ***   
       ESTATE_CONV          IEXTOL          10D-  5             ***   
       ESTATE_DIAG          IEXDIG         ITERATIVE   [  0]    ***   
       ESTATE_LOCK          IESLOC         ON          [  1]    ***   
       ESTATE_MAXC          IEXMXC             40               ***   
       ESTATE_PROP          IEXPRP         OFF         [  0]    ***   
       EVAL_HESS            IRECAL              0            # of cyc.
       EXCITATION           IEXCIT              0               ***   
       EXCITE               IEXCIT         NONE        [  0]    ***   
       EXTERN_POT           IEXPOT         OFF         [  0]    ***   
       FCGRADNEW            IFCGNW         OFF         [  0]    ***   
       FC_FIELD             IFINFC              0             x 10-6  
       FD_CALTYPE           IFDCAL         GRADONLY    [  0]    ***   
       FD_PROJECT           IFDPRJ         OFF         [  1]    ***   
       FD_STEPSIZE          IDISFD              0            10-4 bohr
       FD_USEGROUP          IFDGRP         FULL        [  0]    ***   
       FILE_RECSIZ          IFLREC              4096           words  
       FINITE_PERT          IFIPER              0             x 10-6  
       FIXGEOM              IFIXGM         OFF         [  0]    ***   
       FOCK                 IFOCK          AO          [  1]    ***   
       FREQ_ALGORI          IVIALG         STANDARD    [  0]    ***   
       FROZEN_CORE          IFROCO         OFF         [  0]    ***   
       GAMMA_ABCD           IGABCD         STORE       [  0]    ***   
       GAMMA_ABCI           IGABCI         STORE       [  0]    ***   
       GENBAS_1             IGNBS1              0               ***   
       GENBAS_2             IGNBS2              0               ***   
       GENBAS_3             IGNBS3              0               ***   
       GENBAS_4             IGNBS4              0               ***   
       GEO_CONV             ICONTL              5              H/bohr 
       GEO_MAXCYC           IOPTCY             50               ***   
       GEO_MAXSTEP          IMXSTP            300            millibohr
       GEO_METHOD           INR            SINGLE_POINT[  5]    ***   
       GIAO                 IGIAO          OFF         [  1]    ***   
       GIMIC                IGIMIC         OFF         [  0]    ***   
       GRID                 IGRID          OFF         [  0]    ***   
       GRID_ALGO            IGALGO         SERIAL      [  0]    ***   
       GUESS                IGUESS         MOREAD      [  0]    ***   
       HBAR                 IHBAR          OFF         [  0]    ***   
       HESS_TYPE            IHESTP         SCF         [  0]    ***   
       HF2_FILE             IHF2Fl         USE         [  1]    ***   
       HFSTABILITY          ISTABL         OFF         [  0]    ***   
       INCORE               INCORE         OFF         [  0]    ***   
       INPUT_MRCC           IMRCC          ON          [  1]    ***   
       INTEGRALS            INTTYP         VMOL        [  1]    ***   
       JODA_PRINT           IJPRNT              0               ***   
       KEYWORD_OUT          IDMPKW         NO          [  0]    ***   
       LINDEP_TOL           ILINDP              8               ***   
       LINEQ_CONV           IZTACN          10D-  7           cycles  
       LINEQ_EXPOR          ILMAXD              5               ***   
       LINEQ_MAXCY          ILMAXC            100               ***   
       LINEQ_TYPE           ILTYPE         DIIS        [  1]    ***   
       LOCK_ORBOCC          ILOCOC         OFF         [  0]    ***   
       MEMORY_SIZE          IMEMSZ         500000000           words  
       MEM_UNIT             IMEMU          INTEGERWORDS[  0]    ***   
       MRCC                 IMRCCC         OFF         [  0]    ***   
       MULTIPLICTY          IMULTP              1               ***   
       NACOUPLING           IVCOUP         OFF         [  0]    ***   
       NEGEVAL              IDIE           ABORT       [  0]    ***   
       NEWNORM              INEWNO         OFF         [  0]    ***   
       NON-HF               INONHF         OFF         [  0]    ***   
       NTOP_TAMP            ITOPT2             15               ***   
       NUC_MODEL            INUCMO         POINT       [  0]    ***   
       OCCUPATION           IOCCU   ESTIMATED BY SCF 
       OPEN-SHELL           IOPEN          SPIN-ORBITAL[  0]    ***   
       OPTVIB               IOPTVB         OFF         [  0]    ***   
       ORBITALS             IORBTP         STANDARD    [  0]    ***   
       PARALLEL             IPARAL         ON          [  1]    ***   
       PARA_INT             IPINTS         ON          [  1]    ***   
       PARA_PRINT           IPPRIN              0               ***   
       PERT_ORB             IPTORB         STANDARD    [  0]    ***   
       POINTS               IGRDFD              0               ***   
       PRINT                IPRNT               0               ***   
       PROPS                IPROPS         OFF         [  0]    ***   
       PROP_INTEGR          IINTYP         INTERNAL    [  0]    ***   
       PSI                  IPSI           OFF         [  0]    ***   
       QC_ALG               IQCALG         FLM         [  0]    ***   
       QC_LINALG            IQCLIN         TRIDIAG     [  2]    ***   
       QC_MAXCYC            IQCMAX          10D-100           cycles  
       QC_MAXSCFCY          IQCMSC          10D- 15           cycles  
       QC_RTRUST            IQCRTR          10D-  0           x 10-3  
       QC_SKIPSCF           IQCSKI         OFF         [  0]    ***   
       QC_START             IQCSTA          10D-  1             ***   
       QRHFGUESS            IQGUES         OFF         [  0]    ***   
       QUARTIC              IQUART         OFF         [  0]    ***   
       RAMAN_INT            IRAMIN         OFF         [  0]    ***   
       RAMAN_ORB            IRAMRE         UNRELAXED   [  0]    ***   
       RDO                  IRDOFM         ON          [  1]    ***   
       REDUCE_REPR          REDREP         Ir          [  0]    ***   
       REFERENCE            IREFNC         RHF         [  0]    ***   
       RELATIVIST           IRELAT         OFF         [  0]    ***   
       RELAX_DENS           IRDENS         ON          [  1]    ***   
       RESET_FLAGS          IRESET         OFF         [  0]    ***   
       RESTART_CC           ICCRES         OFF         [  0]    ***   
       ROT_EVEC             ROTVEC              0               ***   
       SAVE_INTS            ISVINT         OFF         [  0]    ***   
       SCALE_ON             ISTCRT              0               ***   
       SCF_CONV             ISCFCV          10D- 10             ***   
       SCF_DAMPING          IDAMP               0             x 10-3  
       SCF_EXPORDE          IRPPOR              6               ***   
       SCF_EXPSTAR          IRPPLS              8               ***   
       SCF_EXTRAPO          IRPP           ON          [  1]    ***   
       SCF_MAXCYC           ISCFCY            150              cycles 
       SCF_NOSTOP           ISCFST         OFF         [  0]    ***   
       SCF_PRINT            ISCFPR              0               ***   
       SCF_PROG             ISCFPR         SCF         [  0]    ***   
       SD_FIELD             IFINSD              0             x 10-6  
       SOPERT               IPERSO         OFF         [  0]    ***   
       SPHERICAL            IDFGHI         ON          [  1]    ***   
       SPINORBIT            ISOCAL         OFF         [  0]    ***   
       SPINROTATIO          ISRCON         OFF         [  0]    ***   
       SPIN_FLIP            ISPFLP         OFF         [  0]    ***   
       SPIN_ORBIT           ISPORB         OFF         [  0]    ***   
       SPIN_SCAL            ISCSMP         OFF         [  0]    ***   
       STEEPSCALE           ISTPSC              1000          x 10-3  
       SUBGROUP             ISUBGP         DEFAULT     [  0]    ***   
       SUBGRPAXIS           ISBXYZ         X           [  0]    ***   
       SYMMETRY             ISYM           ON          [  0]    ***   
       SYM_CHECK            ISYMCK         OVERRIDE    [  1]    ***   
       T3_EXTRAPOL          IT3EXT         OFF         [  0]    ***   
       T4_EXTRAPOL          IT4EXP         OFF         [  0]    ***   
       TAMP_SUM             IEVERY              5               ***   
       TESTSUITE            ITESTS         OFF         [  0]    ***   
       THERMOCH             ITHERM         OFF         [  0]    ***   
       TOL_CHOLESK          ITOLCH          10D-  4             ***   
       TRANGRAD             IRESRM         OFF         [  0]    ***   
       TRANS_INV            ITRAIN         IGNORE      [  1]    ***   
       TREAT_PERT           ITREAT         SIMULTANEOUS[  0]    ***   
       TRIP_ALGORI          ITRALG         NORMAL      [  0]    ***   
       UIJ_THRESHO          IUIJTH              1               ***   
       UNITS                IUNITS         ANGSTROM    [  0]    ***   
       UNOS                 IUNOS          OFF         [  0]    ***   
       UPDATE_HESS          IHUPDT         ON          [  1]    ***   
       VIBPHASE             ISETPH         STANDARD    [  0]    ***   
       VIBRATION            IVIB           ANALYTIC    [  1]    ***   
       VIB_ALGORIT          IGEALG         STANDARD    [  0]    ***   
       VNATORB              IVNORB         OFF         [  0]    ***   
       VTRAN                IVTRAN         FULL/PARTIAL[  0]    ***   
       XFIELD               IXEFLD              0             x 10-6  
       XFORM_TOL            IXFTOL          10D- 11             ***   
       YFIELD               IYEFLD              0             x 10-6  
       ZFIELD               IZEFLD            ***             x 10-6  
       ZSCALE_EXP           IZEXPS         OFF         [  0]    ***   
    -------------------------------------------------------------------
   2 entries found in Z-matrix 
   Job Title : Carbon Monoxide DBOC calculation                                                
   There are  1 unique internal coordinates.
   Of these,  0 will be optimized.
   User supplied Z-matrix: 
--------------------------------------------------------------------------------
       SYMBOL    BOND      LENGTH    ANGLE     ANGLE     DIHED     ANGLE
                  TO      (ANGST)    WRT      (DEG)      WRT      (DEG)
--------------------------------------------------------------------------------
        C    
        O          1         r    
                  *Initial values for internal coordinates* 
                      Name             Value
                        r               1.5517241379
--------------------------------------------------------------------------------
  read isotopes from ZMAT file 
   Rotational constants (in cm-1): 
          0.9723959273             0.9723959273
   Rotational constants (in MHz): 
      29151.7006037753         29151.7006037753
********************************************************************************
   The full molecular point group is CXv .
   The largest Abelian subgroup of the full molecular point group is C2v .
   The computational point group is C2v .
********************************************************************************
--------------------------------------------------------------------------------
   Analysis of internal coordinates specified by Z-matrix 
--------------------------------------------------------------------------------
   *The nuclear repulsion energy is   16.369211626666665 a.u.
   *There is   1 degree of freedom within the tot. symm. molecular subspace.
   *Z-matrix requests optimization of   0 coordinates.
   *The optimization is constrained.
   *The following   1 parameters can have non-zero 
    derivatives within the totally symmetric subspace:
             r    [ 1]
   *The following   0 parameters are to be optimized:

   *The following coordinates must be varied in an  unconstrained optimization.
             r    [ 1]
--------------------------------------------------------------------------------


 ----------------------------------------------------------------
         Coordinates used in calculation (QCOMP) 
 ----------------------------------------------------------------
 Z-matrix   Atomic            Coordinates (in bohr)
  Symbol    Number           X              Y              Z
 ----------------------------------------------------------------
     C         6        -0.00000000     0.00000000     1.75936772
     O         8         0.00000000     0.00000000    -1.17296653
 ----------------------------------------------------------------
 
   Interatomic distance matrix (Angstroms) 
 
                 C             O    
                [ 1]        [ 2]
  C    [ 1]     0.00000
  O    [ 2]     1.55172     0.00000
 rotcon2
   Rotational constants (in cm-1): 
          0.9723959273             0.0000000000
   Rotational constants (in MHz): 
      29151.7006037753             0.0000000000
  ECPDATA file not present.   Using default ECPDATA. 
  @GTFLGS-I, Hessian will be transformed to curvilinear coordinates.
  There are  218 basis functions.
 @CHECKOUT-I, Total execution time (CPU/WALL):        0.19/       0.27 seconds.
--executable xjoda finished with status     0 in        0.32 seconds (walltime).
 --invoking executable--
/nfs/workspaces/public/cfour_mpi/bin/xvmol
 SERIAL VERSION OF MOLECULE STARTED
********************************************************************************
                    INPUT FROM MOL FILE
********************************************************************************
INTGRL        1    0    1    0    0    0    0    0    0                         
         *** CFOUR Program System (Release V0.1) ***                            
Carbon Monoxide DBOC calculation                                                
    2    2 X  Y       0.10E-08              0    0                              
   9999.00      3.00                                                            
          6.00000000    1    5    1    1    1    1    1                         
C #1  -0.000000000000000   0.000000000000000   1.759367722391777                
   16    9                                                                      
   33980.0000000000       9.100000000000000E-005 -1.900000000000000E-005        
  0.000000000000000E+000  0.000000000000000E+000  0.000000000000000E+000        
  0.000000000000000E+000  0.000000000000000E+000  0.000000000000000E+000        
  0.000000000000000E+000                                                        
   5089.00000000000       7.040000000000000E-004 -1.510000000000000E-004        
  0.000000000000000E+000  0.000000000000000E+000  0.000000000000000E+000        
  0.000000000000000E+000  0.000000000000000E+000  0.000000000000000E+000        
  0.000000000000000E+000                                                        
   1157.00000000000       3.693000000000000E-003 -7.850000000000000E-004        
  0.000000000000000E+000  0.000000000000000E+000  0.000000000000000E+000        
  0.000000000000000E+000  0.000000000000000E+000  0.000000000000000E+000        
  0.000000000000000E+000                                                        
   326.600000000000       1.536000000000000E-002 -3.324000000000000E-003        
  0.000000000000000E+000  0.000000000000000E+000  0.000000000000000E+000        
  0.000000000000000E+000  0.000000000000000E+000  0.000000000000000E+000        
  0.000000000000000E+000                                                        
   106.100000000000       5.292900000000000E-002 -1.151200000000000E-002        
  0.000000000000000E+000  0.000000000000000E+000  0.000000000000000E+000        
  0.000000000000000E+000  0.000000000000000E+000  0.000000000000000E+000        
  0.000000000000000E+000                                                        
   38.1100000000000       0.147043000000000      -3.416000000000000E-002        
  0.000000000000000E+000  0.000000000000000E+000  0.000000000000000E+000        
  0.000000000000000E+000  0.000000000000000E+000  0.000000000000000E+000        
  0.000000000000000E+000                                                        
   14.7500000000000       0.305631000000000      -7.717300000000001E-002        
  0.000000000000000E+000  0.000000000000000E+000  0.000000000000000E+000        
  0.000000000000000E+000  0.000000000000000E+000  0.000000000000000E+000        
  0.000000000000000E+000                                                        
   6.03500000000000       0.399345000000000      -0.141493000000000             
  0.000000000000000E+000  0.000000000000000E+000  0.000000000000000E+000        
  0.000000000000000E+000  0.000000000000000E+000  0.000000000000000E+000        
  0.000000000000000E+000                                                        
   2.53000000000000       0.217051000000000      -0.118019000000000             
  0.000000000000000E+000  0.000000000000000E+000  0.000000000000000E+000        
  0.000000000000000E+000  0.000000000000000E+000  0.000000000000000E+000        
  0.000000000000000E+000                                                        
  0.735500000000000       1.589400000000000E-002  0.273806000000000             
   1.00000000000000       0.000000000000000E+000  0.000000000000000E+000        
  0.000000000000000E+000  0.000000000000000E+000  0.000000000000000E+000        
  0.000000000000000E+000                                                        
  0.290500000000000      -3.084000000000000E-003  0.586510000000000             
  0.000000000000000E+000   1.00000000000000       0.000000000000000E+000        
  0.000000000000000E+000  0.000000000000000E+000  0.000000000000000E+000        
  0.000000000000000E+000                                                        
  0.111100000000000       9.779999999999999E-004  0.285430000000000             
  0.000000000000000E+000  0.000000000000000E+000   1.00000000000000             
  0.000000000000000E+000  0.000000000000000E+000  0.000000000000000E+000        
  0.000000000000000E+000                                                        
   7.21600000000000       0.000000000000000E+000  0.000000000000000E+000        
  0.000000000000000E+000  0.000000000000000E+000  0.000000000000000E+000        
   1.00000000000000       0.000000000000000E+000  0.000000000000000E+000        
  0.000000000000000E+000                                                        
   19.5700000000000       0.000000000000000E+000  0.000000000000000E+000        
  0.000000000000000E+000  0.000000000000000E+000  0.000000000000000E+000        
  0.000000000000000E+000   1.00000000000000       0.000000000000000E+000        
  0.000000000000000E+000                                                        
   53.0730000000000       0.000000000000000E+000  0.000000000000000E+000        
  0.000000000000000E+000  0.000000000000000E+000  0.000000000000000E+000        
  0.000000000000000E+000  0.000000000000000E+000   1.00000000000000             
  0.000000000000000E+000                                                        
  4.145000000000000E-002  0.000000000000000E+000  0.000000000000000E+000        
  0.000000000000000E+000  0.000000000000000E+000  0.000000000000000E+000        
  0.000000000000000E+000  0.000000000000000E+000  0.000000000000000E+000        
   1.00000000000000                                                             
   10    8                                                                      
   34.5100000000000       5.378000000000000E-003  0.000000000000000E+000        
  0.000000000000000E+000  0.000000000000000E+000  0.000000000000000E+000        
  0.000000000000000E+000  0.000000000000000E+000  0.000000000000000E+000        
   7.91500000000000       3.613200000000000E-002  0.000000000000000E+000        
  0.000000000000000E+000  0.000000000000000E+000  0.000000000000000E+000        
  0.000000000000000E+000  0.000000000000000E+000  0.000000000000000E+000        
   2.36800000000000       0.142493000000000       0.000000000000000E+000        
  0.000000000000000E+000  0.000000000000000E+000  0.000000000000000E+000        
  0.000000000000000E+000  0.000000000000000E+000  0.000000000000000E+000        
  0.813200000000000       0.342150000000000        1.00000000000000             
  0.000000000000000E+000  0.000000000000000E+000  0.000000000000000E+000        
  0.000000000000000E+000  0.000000000000000E+000  0.000000000000000E+000        
  0.289000000000000       0.463864000000000       0.000000000000000E+000        
   1.00000000000000       0.000000000000000E+000  0.000000000000000E+000        
  0.000000000000000E+000  0.000000000000000E+000  0.000000000000000E+000        
  0.100700000000000       0.250028000000000       0.000000000000000E+000        
  0.000000000000000E+000   1.00000000000000       0.000000000000000E+000        
  0.000000000000000E+000  0.000000000000000E+000  0.000000000000000E+000        
   8.18200000000000       0.000000000000000E+000  0.000000000000000E+000        
  0.000000000000000E+000  0.000000000000000E+000   1.00000000000000             
  0.000000000000000E+000  0.000000000000000E+000  0.000000000000000E+000        
   24.1860000000000       0.000000000000000E+000  0.000000000000000E+000        
  0.000000000000000E+000  0.000000000000000E+000  0.000000000000000E+000        
   1.00000000000000       0.000000000000000E+000  0.000000000000000E+000        
   71.4940000000000       0.000000000000000E+000  0.000000000000000E+000        
  0.000000000000000E+000  0.000000000000000E+000  0.000000000000000E+000        
  0.000000000000000E+000   1.00000000000000       0.000000000000000E+000        
  3.218000000000000E-002  0.000000000000000E+000  0.000000000000000E+000        
  0.000000000000000E+000  0.000000000000000E+000  0.000000000000000E+000        
  0.000000000000000E+000  0.000000000000000E+000   1.00000000000000             
    6    6                                                                      
   1.84800000000000        1.00000000000000       0.000000000000000E+000        
  0.000000000000000E+000  0.000000000000000E+000  0.000000000000000E+000        
  0.000000000000000E+000                                                        
  0.649000000000000       0.000000000000000E+000   1.00000000000000             
  0.000000000000000E+000  0.000000000000000E+000  0.000000000000000E+000        
  0.000000000000000E+000                                                        
  0.228000000000000       0.000000000000000E+000  0.000000000000000E+000        
   1.00000000000000       0.000000000000000E+000  0.000000000000000E+000        
  0.000000000000000E+000                                                        
   8.65600000000000       0.000000000000000E+000  0.000000000000000E+000        
  0.000000000000000E+000   1.00000000000000       0.000000000000000E+000        
  0.000000000000000E+000                                                        
   33.2130000000000       0.000000000000000E+000  0.000000000000000E+000        
  0.000000000000000E+000  0.000000000000000E+000   1.00000000000000             
  0.000000000000000E+000                                                        
  7.660000000000000E-002  0.000000000000000E+000  0.000000000000000E+000        
  0.000000000000000E+000  0.000000000000000E+000  0.000000000000000E+000        
   1.00000000000000                                                             
    4    4                                                                      
   1.41900000000000        1.00000000000000       0.000000000000000E+000        
  0.000000000000000E+000  0.000000000000000E+000                                
  0.485000000000000       0.000000000000000E+000   1.00000000000000             
  0.000000000000000E+000  0.000000000000000E+000                                
   24.6940000000000       0.000000000000000E+000  0.000000000000000E+000        
   1.00000000000000       0.000000000000000E+000                                
  0.187000000000000       0.000000000000000E+000  0.000000000000000E+000        
  0.000000000000000E+000   1.00000000000000                                     
    2    2                                                                      
   1.01100000000000        1.00000000000000       0.000000000000000E+000        
  0.424000000000000       0.000000000000000E+000   1.00000000000000             
          8.00000000    1    5    1    1    1    1    1                         
O #2   0.000000000000000   0.000000000000000  -1.172966533816654                
   16    9                                                                      
   61420.0000000000       9.000000000000001E-005 -2.000000000000000E-005        
  0.000000000000000E+000  0.000000000000000E+000  0.000000000000000E+000        
  0.000000000000000E+000  0.000000000000000E+000  0.000000000000000E+000        
  0.000000000000000E+000                                                        
   9199.00000000000       6.980000000000001E-004 -1.590000000000000E-004        
  0.000000000000000E+000  0.000000000000000E+000  0.000000000000000E+000        
  0.000000000000000E+000  0.000000000000000E+000  0.000000000000000E+000        
  0.000000000000000E+000                                                        
   2091.00000000000       3.664000000000000E-003 -8.290000000000000E-004        
  0.000000000000000E+000  0.000000000000000E+000  0.000000000000000E+000        
  0.000000000000000E+000  0.000000000000000E+000  0.000000000000000E+000        
  0.000000000000000E+000                                                        
   590.900000000000       1.521800000000000E-002 -3.508000000000000E-003        
  0.000000000000000E+000  0.000000000000000E+000  0.000000000000000E+000        
  0.000000000000000E+000  0.000000000000000E+000  0.000000000000000E+000        
  0.000000000000000E+000                                                        
   192.300000000000       5.242300000000000E-002 -1.215600000000000E-002        
  0.000000000000000E+000  0.000000000000000E+000  0.000000000000000E+000        
  0.000000000000000E+000  0.000000000000000E+000  0.000000000000000E+000        
  0.000000000000000E+000                                                        
   69.3200000000000       0.145921000000000      -3.626100000000000E-002        
  0.000000000000000E+000  0.000000000000000E+000  0.000000000000000E+000        
  0.000000000000000E+000  0.000000000000000E+000  0.000000000000000E+000        
  0.000000000000000E+000                                                        
   26.9700000000000       0.305258000000000      -8.299200000000000E-002        
  0.000000000000000E+000  0.000000000000000E+000  0.000000000000000E+000        
  0.000000000000000E+000  0.000000000000000E+000  0.000000000000000E+000        
  0.000000000000000E+000                                                        
   11.1000000000000       0.398508000000000      -0.152090000000000             
  0.000000000000000E+000  0.000000000000000E+000  0.000000000000000E+000        
  0.000000000000000E+000  0.000000000000000E+000  0.000000000000000E+000        
  0.000000000000000E+000                                                        
   4.68200000000000       0.216980000000000      -0.115331000000000             
  0.000000000000000E+000  0.000000000000000E+000  0.000000000000000E+000        
  0.000000000000000E+000  0.000000000000000E+000  0.000000000000000E+000        
  0.000000000000000E+000                                                        
   1.42800000000000       1.759400000000000E-002  0.288979000000000             
   1.00000000000000       0.000000000000000E+000  0.000000000000000E+000        
  0.000000000000000E+000  0.000000000000000E+000  0.000000000000000E+000        
  0.000000000000000E+000                                                        
  0.554700000000000      -2.502000000000000E-003  0.586128000000000             
  0.000000000000000E+000   1.00000000000000       0.000000000000000E+000        
  0.000000000000000E+000  0.000000000000000E+000  0.000000000000000E+000        
  0.000000000000000E+000                                                        
  0.206700000000000       9.540000000000000E-004  0.277624000000000             
  0.000000000000000E+000  0.000000000000000E+000   1.00000000000000             
  0.000000000000000E+000  0.000000000000000E+000  0.000000000000000E+000        
  0.000000000000000E+000                                                        
   12.9740000000000       0.000000000000000E+000  0.000000000000000E+000        
  0.000000000000000E+000  0.000000000000000E+000  0.000000000000000E+000        
   1.00000000000000       0.000000000000000E+000  0.000000000000000E+000        
  0.000000000000000E+000                                                        
   34.9000000000000       0.000000000000000E+000  0.000000000000000E+000        
  0.000000000000000E+000  0.000000000000000E+000  0.000000000000000E+000        
  0.000000000000000E+000   1.00000000000000       0.000000000000000E+000        
  0.000000000000000E+000                                                        
   93.8810000000000       0.000000000000000E+000  0.000000000000000E+000        
  0.000000000000000E+000  0.000000000000000E+000  0.000000000000000E+000        
  0.000000000000000E+000  0.000000000000000E+000   1.00000000000000             
  0.000000000000000E+000                                                        
  6.959000000000000E-002  0.000000000000000E+000  0.000000000000000E+000        
  0.000000000000000E+000  0.000000000000000E+000  0.000000000000000E+000        
  0.000000000000000E+000  0.000000000000000E+000  0.000000000000000E+000        
   1.00000000000000                                                             
   10    8                                                                      
   63.4200000000000       6.044000000000000E-003  0.000000000000000E+000        
  0.000000000000000E+000  0.000000000000000E+000  0.000000000000000E+000        
  0.000000000000000E+000  0.000000000000000E+000  0.000000000000000E+000        
   14.6600000000000       4.179900000000000E-002  0.000000000000000E+000        
  0.000000000000000E+000  0.000000000000000E+000  0.000000000000000E+000        
  0.000000000000000E+000  0.000000000000000E+000  0.000000000000000E+000        
   4.45900000000000       0.161143000000000       0.000000000000000E+000        
  0.000000000000000E+000  0.000000000000000E+000  0.000000000000000E+000        
  0.000000000000000E+000  0.000000000000000E+000  0.000000000000000E+000        
   1.53100000000000       0.356731000000000        1.00000000000000             
  0.000000000000000E+000  0.000000000000000E+000  0.000000000000000E+000        
  0.000000000000000E+000  0.000000000000000E+000  0.000000000000000E+000        
  0.530200000000000       0.448309000000000       0.000000000000000E+000        
   1.00000000000000       0.000000000000000E+000  0.000000000000000E+000        
  0.000000000000000E+000  0.000000000000000E+000  0.000000000000000E+000        
  0.175000000000000       0.244940000000000       0.000000000000000E+000        
  0.000000000000000E+000   1.00000000000000       0.000000000000000E+000        
  0.000000000000000E+000  0.000000000000000E+000  0.000000000000000E+000        
   14.4750000000000       0.000000000000000E+000  0.000000000000000E+000        
  0.000000000000000E+000  0.000000000000000E+000   1.00000000000000             
  0.000000000000000E+000  0.000000000000000E+000  0.000000000000000E+000        
   42.7300000000000       0.000000000000000E+000  0.000000000000000E+000        
  0.000000000000000E+000  0.000000000000000E+000  0.000000000000000E+000        
   1.00000000000000       0.000000000000000E+000  0.000000000000000E+000        
   126.140000000000       0.000000000000000E+000  0.000000000000000E+000        
  0.000000000000000E+000  0.000000000000000E+000  0.000000000000000E+000        
  0.000000000000000E+000   1.00000000000000       0.000000000000000E+000        
  5.348000000000000E-002  0.000000000000000E+000  0.000000000000000E+000        
  0.000000000000000E+000  0.000000000000000E+000  0.000000000000000E+000        
  0.000000000000000E+000  0.000000000000000E+000   1.00000000000000             
    6    6                                                                      
   3.77500000000000        1.00000000000000       0.000000000000000E+000        
  0.000000000000000E+000  0.000000000000000E+000  0.000000000000000E+000        
  0.000000000000000E+000                                                        
   1.30000000000000       0.000000000000000E+000   1.00000000000000             
  0.000000000000000E+000  0.000000000000000E+000  0.000000000000000E+000        
  0.000000000000000E+000                                                        
  0.444000000000000       0.000000000000000E+000  0.000000000000000E+000        
   1.00000000000000       0.000000000000000E+000  0.000000000000000E+000        
  0.000000000000000E+000                                                        
   14.9270000000000       0.000000000000000E+000  0.000000000000000E+000        
  0.000000000000000E+000   1.00000000000000       0.000000000000000E+000        
  0.000000000000000E+000                                                        
   57.5440000000000       0.000000000000000E+000  0.000000000000000E+000        
  0.000000000000000E+000  0.000000000000000E+000   1.00000000000000             
  0.000000000000000E+000                                                        
  0.154000000000000       0.000000000000000E+000  0.000000000000000E+000        
  0.000000000000000E+000  0.000000000000000E+000  0.000000000000000E+000        
   1.00000000000000                                                             
    4    4                                                                      
   2.66600000000000        1.00000000000000       0.000000000000000E+000        
  0.000000000000000E+000  0.000000000000000E+000                                
  0.859000000000000       0.000000000000000E+000   1.00000000000000             
  0.000000000000000E+000  0.000000000000000E+000                                
   26.4830000000000       0.000000000000000E+000  0.000000000000000E+000        
   1.00000000000000       0.000000000000000E+000                                
  0.324000000000000       0.000000000000000E+000  0.000000000000000E+000        
  0.000000000000000E+000   1.00000000000000                                     
    2    2                                                                      
   1.84600000000000        1.00000000000000       0.000000000000000E+000        
  0.714000000000000       0.000000000000000E+000   1.00000000000000             
FINISH                                                                          
 
********************************************************************************
 ONE- AND TWO-ELECTRON INTEGRALS OVER SYMMETRY-ADAPTED AOS ARE CALCULATED.

  SPHERICAL HARMONICS ARE USED.
  
  INTEGRALS LESS THAN  0.10E-13 ARE NEGLECTED.

  NUCLEAR REPULSION ENERGY :   16.3692116267 A.U.
  @MOLECU-I, ONE ELECTRON INTEGRALS (CPU/WALL):        0.06/       0.07 SECONDS.
  @TWOEL-I,    4451196 INTEGRALS OF SYMMETRY TYPE  I I I I
  @TWOEL-I,   19201920 INTEGRALS OF SYMMETRY TYPE  I J I J
  @TWOEL-I,   10110608 INTEGRALS OF SYMMETRY TYPE  I I J J
  @TWOEL-I,   14196508 INTEGRALS OF SYMMETRY TYPE  I J K L
  @TWOEL-I, TOTAL NUMBER OF 2-E INTEGRALS   47960232.
  @MOLECU-I, TWO ELECTRON INTEGRALS (CPU/WALL):      238.80/      32.36 SECONDS.
 @CHECKOUT-I, Total execution time (CPU/WALL):      238.88/      32.45 seconds.

Running with 14 threads/proc

--executable xvmol finished with status     0 in       32.48 seconds (walltime).
 --invoking executable--
/nfs/workspaces/public/cfour_mpi/bin/xvmol2ja
 @GETMEM-I,  Allocated    3814 MB of main memory.
 @CHECKOUT-I, Total execution time (CPU/WALL):        0.32/       0.09 seconds.
--executable xvmol2ja finished with status     0 in        0.11 seconds (walltime).
 --invoking executable--
/nfs/workspaces/public/cfour_mpi/bin/xvprop
 @GETMEM-I,  Allocated    3814 MB of main memory.
   Property integrals will be calculated.
    --------------------------------------------------------------
                                   Property evaluated at 
    Property type                X             Y             Z
    --------------------------------------------------------------
    Dipole moment               ----          ----          ----  
    Quadrupole moment           ----          ----          ----  
    Octopole moment             ----          ----          ----  
    Relativisitic corr.         ----          ----          ----  
    Second moment            0.0000000     0.0000000     0.0000000
    Electron density         0.0000000     0.0000000     1.7593677
    Electron density         0.0000000     0.0000000    -1.1729665
    Field gradient           0.0000000     0.0000000     1.7593677
    Field gradient           0.0000000     0.0000000    -1.1729665
    Potential                0.0000000     0.0000000     1.7593677
    Potential                0.0000000     0.0000000    -1.1729665
    --------------------------------------------------------------
 @CHECKOUT-I, Total execution time (CPU/WALL):        1.32/       1.37 seconds.
--executable xvprop finished with status     0 in        1.40 seconds (walltime).
 --invoking executable--
/nfs/workspaces/public/cfour_mpi/bin/xvscf
  There are  218 functions in the AO basis.

  There are 4 irreducible representations.

       Irrep        # of functions
         1                 86
         2                 52
         3                 52
         4                 28


  Parameters for SCF calculation: 
        SCF reference function:  RHF  
  Maximum number of iterations:  150
     Full symmetry point group: CXv 
     Computational point group: C2v 
        Initial density matrix: MOREAD                 
     SCF convergence tolerance: 10**(-10)
  DIIS convergence acceleration:  ON
          Latest start for DIIS:   8
                     DIIS order:   6

  Memory information:    2523578 words required.
  Fock matrices are constructed from AO integral file.
 @GETMEM-I,  Allocated      19 MB of main memory.
  Initialization and symmetry analysis required      0.001 seconds.

  Adding electric field perturbation to one-electron Hamiltonian.
  Field direction     : Z
  Field strength      : -0.0002000 a.u.

  @INITGES-I, Occupancies from core Hamiltonian:

          Alpha population by irrep:   5    1    1    0
           Beta population by irrep:   5    1    1    0


 total no. of electrons in initial guess :  0.000000000000000E+000
  --------------------------------------------------------------------
  Iteration         Total Energy            Largest Density Difference
  --------------------------------------------------------------------
       0            16.369446121478838              0.0000000000D+00
   current occupation vector 
     5  1  1  0
     5  1  1  0
       1           -93.518241870901619              0.1754102397D+02
   current occupation vector 
     5  1  1  0
     5  1  1  0
       2           -98.120534250860402              0.1754100321D+02
   current occupation vector 
     5  1  1  0
     5  1  1  0
       3          -100.824310327459216              0.6437774669D+01
   current occupation vector 
     5  1  1  0
     5  1  1  0
       4           -95.840778746252766              0.6431372744D+01
   current occupation vector 
     5  1  1  0
     5  1  1  0
       5          -100.474417036883636              0.6892052757D+01
   current occupation vector 
     5  1  1  0
     5  1  1  0
       6           -95.457228550756298              0.6892665703D+01
   current occupation vector 
     5  1  1  0
     5  1  1  0
       7          -100.456519751137904              0.6921312438D+01
   current occupation vector 
     5  1  1  0
     5  1  1  0
       8           -95.444009906251807              0.6921382832D+01
   current occupation vector 
     5  1  1  0
     5  1  1  0
       9          -107.493552200160906              0.5695643257D+01
   current occupation vector 
     5  1  1  0
     5  1  1  0
      10          -110.176444317853282              0.1234867112D+01
   current occupation vector 
     5  1  1  0
     5  1  1  0
      11          -112.384643928728650              0.1213996262D+01
   current occupation vector 
     5  1  1  0
     5  1  1  0
      12          -112.551139370275280              0.4797938438D+00
   current occupation vector 
     5  1  1  0
     5  1  1  0
      13          -112.559941981894440              0.1270649161D+00
   current occupation vector 
     5  1  1  0
     5  1  1  0
      14          -112.562874090888357              0.6793624424D-01
   current occupation vector 
     5  1  1  0
     5  1  1  0
      15          -112.563076808935818              0.1777167689D-01
   current occupation vector 
     5  1  1  0
     5  1  1  0
      16          -112.563216255899363              0.2071906965D-01
   current occupation vector 
     5  1  1  0
     5  1  1  0
      17          -112.563265352208816              0.1455300998D-01
   current occupation vector 
     5  1  1  0
     5  1  1  0
      18          -112.563274133956213              0.7963152900D-02
   current occupation vector 
     5  1  1  0
     5  1  1  0
      19          -112.563274203729236              0.6839224045D-03
   current occupation vector 
     5  1  1  0
     5  1  1  0
      20          -112.563274204343230              0.2169222822D-04
   current occupation vector 
     5  1  1  0
     5  1  1  0
      21          -112.563274204391405              0.9153303776D-05
   current occupation vector 
     5  1  1  0
     5  1  1  0
      22          -112.563274204392059              0.1292245066D-05
   current occupation vector 
     5  1  1  0
     5  1  1  0
      23          -112.563274204392428              0.2377429851D-06
   current occupation vector 
     5  1  1  0
     5  1  1  0
      24          -112.563274204392371              0.5244591406D-07
   current occupation vector 
     5  1  1  0
     5  1  1  0
      25          -112.563274204390979              0.3696738915D-07
   current occupation vector 
     5  1  1  0
     5  1  1  0
      26          -112.563274204391320              0.2395364129D-07
   current occupation vector 
     5  1  1  0
     5  1  1  0
      27          -112.563274204391405              0.1618243484D-07
   current occupation vector 
     5  1  1  0
     5  1  1  0
      28          -112.563274204391320              0.1322340126D-08
   current occupation vector 
     5  1  1  0
     5  1  1  0
      29          -112.563274204392030              0.2884936734D-09
   current occupation vector 
     5  1  1  0
     5  1  1  0

  SCF has converged.

 Density matrix saved to file den.dat
 total electron number:   14.0000000000000     
     E(SCF)=      -112.563274204390012              0.8634404303D-10

  Eigenvector printing suppressed.

 @PUTMOS-I, Writing converged MOs to NEWMOS. 
 @PUTMOS-I, Symmetry   1 Full Blocks 21 Partial Blocksize   2
 @PUTMOS-I, Symmetry   2 Full Blocks 13 Partial Blocksize   0
 @PUTMOS-I, Symmetry   3 Full Blocks 13 Partial Blocksize   0
 @PUTMOS-I, Symmetry   4 Full Blocks  7 Partial Blocksize   0
 @PUTFOCK-I, Writing converged Fock matrix to NEWFOCK. 
 @PUTFOCK-I, Symmetry   1 Full Blocks 21 Partial Blocksize   2
 @PUTFOCK-I, Symmetry   2 Full Blocks 13 Partial Blocksize   0
 @PUTFOCK-I, Symmetry   3 Full Blocks 13 Partial Blocksize   0
 @PUTFOCK-I, Symmetry   4 Full Blocks  7 Partial Blocksize   0


 
  ORBITAL EIGENVALUES (ALPHA)  (1H = 27.2113834 eV)

       MO #        E(hartree)               E(eV)           FULLSYM    COMPSYM
       ----   --------------------   --------------------   -------   ---------
    1     1         -20.6500907826        -561.9175375308     SG+        A1 (1)
    2     2         -11.5121248633        -313.2608434034     SG+        A1 (1)
    3     3          -1.2945943942         -35.2277044089     SG+        A1 (1)
    4     4          -0.8015770813         -21.8120212834     SG+        A1 (1)
    5     5          -0.5405167686         -14.7082090242     SG+        A1 (1)
    6    87          -0.5068172890         -13.7911995645      PI        B1 (2)
    7   139          -0.5068172890         -13.7911995645      PI        B2 (3)
  +++++++++++++++++++++++++++++++++++++++++++++++++++++++++++++++++++++++++++++
    8   140           0.0018456508           0.0502227126      PI        B2 (3)
    9    88           0.0018456508           0.0502227126      PI        B1 (2)
   10     6           0.0602739852           1.6401385208     SG+        A1 (1)
   11     7           0.0688011671           1.8721749370     SG+        A1 (1)
   12   141           0.0824717837           2.2441713262      PI        B2 (3)
   13    89           0.0824717837           2.2441713262      PI        B1 (2)
   14     8           0.1574397066           4.2841522193     SG+        A1 (1)
   15   142           0.1784237561           4.8551572362      PI        B2 (3)
   16    90           0.1784237561           4.8551572362      PI        B1 (2)
   17     9           0.2076245698           5.6497517729     SG+        A1 (1)
   18   191           0.2225026626           6.0546052594      DE        A2 (4)
   19    10           0.2225026626           6.0546052594      DE        A1 (1)
   20    91           0.2871788398           7.8145335147      PI        B1 (2)
   21   143           0.2871788398           7.8145335147      PI        B2 (3)
   22    11           0.3005680515           8.1788724877     SG+        A1 (1)
   23    12           0.3250615463           8.8453743638     SG+        A1 (1)
   24    92           0.4034970041          10.9797116786      PI        B1 (2)
   25   144           0.4034970041          10.9797116786      PI        B2 (3)
   26    13           0.4279738474          11.6457604456     SG+        A1 (1)
   27    14           0.5131135876          13.9625305594     SG+        A1 (1)
   28    15           0.5495622741          14.9543497439      DE        A1 (1)
   29   192           0.5495622741          14.9543497439      DE        A2 (4)
   30    93           0.6236175680          16.9694967391      PI        B1 (2)
   31   145           0.6236175680          16.9694967391      PI        B2 (3)
   32    16           0.7092566674          19.2998551058     SG+        A1 (1)
   33   146           0.7333411994          19.9552285402      PH        B2 (3)
   34    94           0.7333411994          19.9552285402      PH        B1 (2)
   35   193           0.7413092227          20.1720494769      DE        A2 (4)
   36    17           0.7413092227          20.1720494769      DE        A1 (1)
   37    95           0.7792862298          21.2054563787      PI        B1 (2)
   38   147           0.7792862298          21.2054563787      PI        B2 (3)
   39    18           0.8217296624          22.3604008947     SG+        A1 (1)
   40    19           0.8626191739          23.4730610684      DE        A1 (1)
   41   194           0.8626191739          23.4730610684      DE        A2 (4)
   42    20           0.8793143559          23.9273600679     SG+        A1 (1)
   43    96           0.8890956757          24.1935233119      PI        B1 (2)
   44   148           0.8890956757          24.1935233119      PI        B2 (3)
   45    97           1.0362677735          28.1982796909      PI        B1 (2)
   46   149           1.0362677735          28.1982796909      PI        B2 (3)
   47    21           1.1294458485          30.7337840133     SG+        A1 (1)
   48    22           1.3699916065          37.2793668594     SG+        A1 (1)
   49   150           1.4222681947          38.7018851444      PH        B2 (3)
   50    98           1.4222681947          38.7018851444      PH        B1 (2)
   51    99           1.5029961932          40.8986056632      PI        B1 (2)
   52   151           1.5029961932          40.8986056632      PI        B2 (3)
   53    23           1.5815165239          43.0352524865      DE        A1 (1)
   54   195           1.5815165239          43.0352524865      DE        A2 (4)
   55    24           1.5987307992          43.5036767308     SG+        A1 (1)
   56   100           1.6381830258          44.5772263948      PI        B1 (2)
   57   152           1.6381830258          44.5772263948      PI        B2 (3)
   58    25           1.6851521126          45.8553202232      DE        A1 (1)
   59   196           1.6851521126          45.8553202232      DE        A2 (4)
   60    26           1.9157276585          52.1295998045     SG+        A1 (1)
   61    27           1.9665251446          53.5118696754     SG+        A1 (1)
   62   197           2.0712587963          56.3618172275      PI        A2 (4)
   63    28           2.0712587963          56.3618172275      PI        A1 (1)
   64   101           2.0812838905          56.6346139080      PI        B1 (2)
   65   153           2.0812838905          56.6346139081      PI        B2 (3)
   66   198           2.1305201283          57.9744000534      DE        A2 (4)
   67    29           2.1305201283          57.9744000534      DE        A1 (1)
   68   154           2.2091157441          60.1130954869      PH        B2 (3)
   69   102           2.2091157441          60.1130954869      PH        B1 (2)
   70   155           2.2201937895          60.4145444286      PH        B2 (3)
   71   103           2.2201937895          60.4145444286      PH        B1 (2)
   72    30           2.2284187705          60.6383575409     SG+        A1 (1)
   73   104           2.2313003102          60.7167682224      PI        B1 (2)
   74   156           2.2313003102          60.7167682224      PI        B2 (3)
   75   199           2.2898703313          62.3105395216      DE        A2 (4)
   76    31           2.2898703313          62.3105395216      DE        A1 (1)
   77    32           2.4177386035          65.7900121015     SG+        A1 (1)
   78   105           2.5159327964          68.4620119306      PI        B1 (2)
   79   157           2.5159327964          68.4620119306      PI        B2 (3)
   80   106           2.5938498392          70.5822424568      PI        B1 (2)
   81   158           2.5938498392          70.5822424568      PI        B2 (3)
   82    33           2.6215224673          71.3352529491     SG+        A1 (1)
   83    34           2.6666553635          72.5633814927      DE        A1 (1)
   84   200           2.6666553635          72.5633814928      DE        A2 (4)
   85    35           2.9850126162          81.2263227519     SG+        A1 (1)
   86   107           3.4266736614          93.2445307875      PI        B1 (2)
   87   159           3.4266736614          93.2445307875      PI        B2 (3)
   88   201           3.7063358211         100.8545250362      PI        A2 (4)
   89    36           3.7063358211         100.8545250362      PI        A1 (1)
   90    37           3.9018609294         106.1750337244     SG+        A1 (1)
   91   160           3.9334248203         107.0339308595      PH        B2 (3)
   92   108           3.9334248203         107.0339308595      PH        B1 (2)
   93   161           4.1356732433         112.5373902419      PH        B2 (3)
   94   109           4.1356732433         112.5373902419      PH        B1 (2)
   95    38           4.1453256803         112.8000464048     SG+        A1 (1)
   96   110           4.1584532012         113.1572644079      PI        B1 (2)
   97   162           4.1584532012         113.1572644079      PI        B2 (3)
   98    39           4.1943163978         114.1331516007      DE        A1 (1)
   99   202           4.1943163978         114.1331516007      DE        A2 (4)
  100    40           4.2866550831         116.6458149702      DE        A1 (1)
  101   203           4.2866550831         116.6458149703      DE        A2 (4)
  102    41           4.4268767952         120.4614417401     SG+        A1 (1)
  103   111           4.5606477409         124.1015342313      PI        B1 (2)
  104   163           4.5606477409         124.1015342313      PI        B2 (3)
  105   204           4.7119633791         128.2190420753      DE        A2 (4)
  106    42           4.7119633791         128.2190420754      DE        A1 (1)
  107    43           4.7546833487         129.3815115473     SG+        A1 (1)
  108   112           5.1789813758         140.9272478382      PI        B1 (2)
  109   164           5.1789813758         140.9272478382      PI        B2 (3)
  110    44           5.2709100360         143.4287538568     SG+        A1 (1)
  111   165           5.3441538199         145.4218185431      PI        B2 (3)
  112   113           5.3441538199         145.4218185432      PI        B1 (2)
  113   205           5.8329500672         158.7226406307      PI        A2 (4)
  114    45           5.8329500672         158.7226406307      PI        A1 (1)
  115   166           5.9065705366         160.7259554503      PH        B2 (3)
  116   114           5.9065705366         160.7259554503      PH        B1 (2)
  117    46           6.0608413145         164.9238767357     SG+        A1 (1)
  118    47           6.1187967758         166.5009250131      DE        A1 (1)
  119   206           6.1187967758         166.5009250131      DE        A2 (4)
  120   167           6.1414027784         167.1160656176      PI        B2 (3)
  121   115           6.1414027784         167.1160656176      PI        B1 (2)
  122    48           6.1975163990         168.6429948604     SG+        A1 (1)
  123   207           6.3439990851         172.6289913952      DE        A2 (4)
  124    49           6.3439990851         172.6289913953      DE        A1 (1)
  125   168           6.3606680320         173.0825764983      PH        B2 (3)
  126   116           6.3606680320         173.0825764983      PH        B1 (2)
  127   208           6.4951860998         176.7429992147      DE        A2 (4)
  128    50           6.4951860998         176.7429992147      DE        A1 (1)
  129   117           6.8168948484         185.4971393166      PI        B1 (2)
  130   169           6.8168948484         185.4971393167      PI        B2 (3)
  131    51           7.1123959835         193.5381339991     SG+        A1 (1)
  132   118           7.3277229945         199.3974798512      PI        B1 (2)
  133   170           7.3277229945         199.3974798512      PI        B2 (3)
  134    52           7.9223826687         215.5789922394     SG+        A1 (1)
  135    53           9.6020788978         261.2858503255     SG+        A1 (1)
  136   119           9.7730150145         265.9372585345      PI        B1 (2)
  137   171           9.7730150145         265.9372585345      PI        B2 (3)
  138   209          10.6492262192         289.7801775653      PI        A2 (4)
  139    54          10.6492262192         289.7801775653      PI        A1 (1)
  140    55          10.6896219091         290.8794001706     SG+        A1 (1)
  141   172          10.7410407509         292.2785779887      PH        B2 (3)
  142   120          10.7410407509         292.2785779887      PH        B1 (2)
  143   210          10.9708317045         298.5315077277      DE        A2 (4)
  144    56          10.9708317045         298.5315077277      DE        A1 (1)
  145   121          10.9775102743         298.7132408510      PI        B1 (2)
  146   173          10.9775102743         298.7132408510      PI        B2 (3)
  147    57          11.1726982958         304.0245769387     SG+        A1 (1)
  148   174          11.8870563031         323.4632465607      PH        B2 (3)
  149   122          11.8870563031         323.4632465607      PH        B1 (2)
  150    58          11.9997181936         326.5289324573      DE        A1 (1)
  151   211          11.9997181936         326.5289324577      DE        A2 (4)
  152   123          12.4017243184         337.4680752495      PI        B1 (2)
  153   175          12.4017243184         337.4680752495      PI        B2 (3)
  154    59          12.6318349163         343.7297029523     SG+        A1 (1)
  155    60          12.7315258900         346.4424322593      DE        A1 (1)
  156   212          12.7315258900         346.4424322594      DE        A2 (4)
  157   124          13.0987920384         356.4362522326      PI        B1 (2)
  158   176          13.0987920384         356.4362522327      PI        B2 (3)
  159    61          13.5834527682         369.6245411725     SG+        A1 (1)
  160    62          17.3759639920         472.8240181296     SG+        A1 (1)
  161   177          18.7439367847         510.0484502738      PI        B2 (3)
  162   125          18.7439367847         510.0484502740      PI        B1 (2)
  163    63          19.7764695064         538.1450940375     SG+        A1 (1)
  164   213          26.2690727560         714.8178103268      DE        A2 (4)
  165    64          26.2690727560         714.8178103268      DE        A1 (1)
  166   126          26.5921990981         723.6105251068      PI        B1 (2)
  167   178          26.5921990981         723.6105251068      PI        B2 (3)
  168    65          27.0695377655         736.5995705981     SG+        A1 (1)
  169   127          33.4608344557         910.5155952570      PI        B1 (2)
  170   179          33.4608344557         910.5155952571      PI        B2 (3)
  171    66          34.3273918317         934.0958202533     SG+        A1 (1)
  172    67          35.6388713091         969.7829911365     SG+        A1 (1)
  173    68          47.0727803354        1280.9154734096      DE        A1 (1)
  174   214          47.0727803354        1280.9154734096      DE        A2 (4)
  175   180          47.2595555687        1285.9978858926      PI        B2 (3)
  176   128          47.2595555687        1285.9978858926      PI        B1 (2)
  177    69          47.5396142623        1293.6186703785     SG+        A1 (1)
  178    70          63.7954833671        1735.9633570904     SG+        A1 (1)
  179   181          66.3237551348        1804.7611295016      PI        B2 (3)
  180   129          66.3237551348        1804.7611295018      PI        B1 (2)
  181    71          67.0763406937        1825.2400236857     SG+        A1 (1)
  182   182          98.5174793245        2680.7969015008      PH        B2 (3)
  183   130          98.5174793245        2680.7969015008      PH        B1 (2)
  184    72          98.5309807063        2681.1642927782      DE        A1 (1)
  185   215          98.5309807063        2681.1642927783      DE        A2 (4)
  186   131          98.5444084298        2681.5296797106      PI        B1 (2)
  187   183          98.5444084298        2681.5296797106      PI        B2 (3)
  188    73          98.5560813290        2681.8473154463     SG+        A1 (1)
  189   184         103.3059222689        2811.0970583500      PH        B2 (3)
  190   132         103.3059222689        2811.0970583500      PH        B1 (2)
  191   216         103.3086438828        2811.1711172300      DE        A2 (4)
  192    74         103.3086438829        2811.1711172313      DE        A1 (1)
  193   185         103.3397842067        2812.0184885225      PI        B2 (3)
  194   133         103.3397842067        2812.0184885225      PI        B1 (2)
  195    75         103.3456748452        2812.1787809439     SG+        A1 (1)
  196   217         114.9702703364        3128.5001057257      DE        A2 (4)
  197    76         114.9702703364        3128.5001057257      DE        A1 (1)
  198   186         115.1266856469        3132.7563827093      PI        B2 (3)
  199   134         115.1266856469        3132.7563827093      PI        B1 (2)
  200    77         115.3621970580        3139.1649740106     SG+        A1 (1)
  201   135         116.7588607603        3177.1701254954      PI        B1 (2)
  202   187         116.7588607603        3177.1701254954      PI        B2 (3)
  203    78         117.4581004481        3196.1974047292     SG+        A1 (1)
  204    79         121.9035538650        3317.1643420436     SG+        A1 (1)
  205    80         198.5532643502        5402.9090015550      DE        A1 (1)
  206   218         198.5532643502        5402.9090015550      DE        A2 (4)
  207   136         198.6551170869        5405.6805554242      PI        B1 (2)
  208   188         198.6551170869        5405.6805554242      PI        B2 (3)
  209    81         198.7991419540        5409.5996713022     SG+        A1 (1)
  210    82         216.3208098359        5886.3884938442     SG+        A1 (1)
  211   189         224.8026241508        6117.1903950943      PI        B2 (3)
  212   137         224.8026241508        6117.1903950944      PI        B1 (2)
  213    83         225.3930715221        6133.2572848923     SG+        A1 (1)
  214   190         395.2793804396       10756.0987712556      PI        B2 (3)
  215   138         395.2793804396       10756.0987712557      PI        B1 (2)
  216    84         395.8408785138       10771.3779106324     SG+        A1 (1)
  217    85         508.6240403468       13840.3637683352     SG+        A1 (1)
  218    86         895.1385119511       24357.9572448081     SG+        A1 (1)


  VSCF finished.

 @CHECKOUT-I, Total execution time (CPU/WALL):       54.65/      12.64 seconds.
--executable xvscf finished with status     0 in       12.67 seconds (walltime).
 --invoking executable--
/nfs/workspaces/public/cfour_mpi/bin/xvtran
 @GETMEM-I,  Allocated    3814 MB of main memory.
  Full RHF integral transformation
  Transformation of IIII integrals :
  1 pass through the AO integral file was required.
     4451196 AO integrals were read.
     8605660 MO integrals were written to HF2.
  Transformation of IIJJ integrals :
  1 pass through the AO integral file was required.
    10110608 AO integrals were read.
    14354748 MO integrals were written to HF2.
  Transformation of IJIJ integrals :
  1 pass through the AO integral file was required.
    19201920 AO integrals were read.
    26591597 MO integrals were written to HF2.
  Transformation of IJKL integrals :
  1 pass through the AO integral file was required.
    14196508 AO integrals were read.
    18028960 MO integrals were written to HF2.
  Summary of active molecular orbitals: 
------------------------------------------------------------------------
 
  Index      Eigenvalue    Symmetry    Index      Eigenvalue    Symmetry
------------------------------------------------------------------------
     1       -20.6500908        1       110         4.1356732        2
     2       -11.5121249        1       111         4.1584532        2
     3        -1.2945944        1       112         4.5606477        2
     4        -0.8015771        1       113         5.1789814        2
     5        -0.5405168        1       114         5.3441538        2
     6        -0.5068173        2       115         5.9065705        2
     7        -0.5068173        3       116         6.1414028        2
     8         0.0602740        1       117         6.3606680        2
     9         0.0688012        1       118         6.8168948        2
    10         0.1574397        1       119         7.3277230        2
    11         0.2076246        1       120         9.7730150        2
    12         0.2225027        1       121        10.7410408        2
    13         0.3005681        1       122        10.9775103        2
    14         0.3250615        1       123        11.8870563        2
    15         0.4279738        1       124        12.4017243        2
    16         0.5131136        1       125        13.0987920        2
    17         0.5495623        1       126        18.7439368        2
    18         0.7092567        1       127        26.5921991        2
    19         0.7413092        1       128        33.4608345        2
    20         0.8217297        1       129        47.2595556        2
    21         0.8626192        1       130        66.3237551        2
    22         0.8793144        1       131        98.5174793        2
    23         1.1294458        1       132        98.5444084        2
    24         1.3699916        1       133       103.3059223        2
    25         1.5815165        1       134       103.3397842        2
    26         1.5987308        1       135       115.1266856        2
    27         1.6851521        1       136       116.7588608        2
    28         1.9157277        1       137       198.6551171        2
    29         1.9665251        1       138       224.8026242        2
    30         2.0712588        1       139       395.2793804        2
    31         2.1305201        1       140         0.0018457        3
    32         2.2284188        1       141         0.0824718        3
    33         2.2898703        1       142         0.1784238        3
    34         2.4177386        1       143         0.2871788        3
    35         2.6215225        1       144         0.4034970        3
    36         2.6666554        1       145         0.6236176        3
    37         2.9850126        1       146         0.7333412        3
    38         3.7063358        1       147         0.7792862        3
    39         3.9018609        1       148         0.8890957        3
    40         4.1453257        1       149         1.0362678        3
    41         4.1943164        1       150         1.4222682        3
    42         4.2866551        1       151         1.5029962        3
    43         4.4268768        1       152         1.6381830        3
    44         4.7119634        1       153         2.0812839        3
    45         4.7546833        1       154         2.2091157        3
    46         5.2709100        1       155         2.2201938        3
    47         5.8329501        1       156         2.2313003        3
    48         6.0608413        1       157         2.5159328        3
    49         6.1187968        1       158         2.5938498        3
    50         6.1975164        1       159         3.4266737        3
    51         6.3439991        1       160         3.9334248        3
    52         6.4951861        1       161         4.1356732        3
    53         7.1123960        1       162         4.1584532        3
    54         7.9223827        1       163         4.5606477        3
    55         9.6020789        1       164         5.1789814        3
    56        10.6492262        1       165         5.3441538        3
    57        10.6896219        1       166         5.9065705        3
    58        10.9708317        1       167         6.1414028        3
    59        11.1726983        1       168         6.3606680        3
    60        11.9997182        1       169         6.8168948        3
    61        12.6318349        1       170         7.3277230        3
    62        12.7315259        1       171         9.7730150        3
    63        13.5834528        1       172        10.7410408        3
    64        17.3759640        1       173        10.9775103        3
    65        19.7764695        1       174        11.8870563        3
    66        26.2690728        1       175        12.4017243        3
    67        27.0695378        1       176        13.0987920        3
    68        34.3273918        1       177        18.7439368        3
    69        35.6388713        1       178        26.5921991        3
    70        47.0727803        1       179        33.4608345        3
    71        47.5396143        1       180        47.2595556        3
    72        63.7954834        1       181        66.3237551        3
    73        67.0763407        1       182        98.5174793        3
    74        98.5309807        1       183        98.5444084        3
    75        98.5560813        1       184       103.3059223        3
    76       103.3086439        1       185       103.3397842        3
    77       103.3456748        1       186       115.1266856        3
    78       114.9702703        1       187       116.7588608        3
    79       115.3621971        1       188       198.6551171        3
    80       117.4581004        1       189       224.8026242        3
    81       121.9035539        1       190       395.2793804        3
    82       198.5532644        1       191         0.2225027        4
    83       198.7991420        1       192         0.5495623        4
    84       216.3208098        1       193         0.7413092        4
    85       225.3930715        1       194         0.8626192        4
    86       395.8408785        1       195         1.5815165        4
    87       508.6240403        1       196         1.6851521        4
    88       895.1385120        1       197         2.0712588        4
    89         0.0018457        2       198         2.1305201        4
    90         0.0824718        2       199         2.2898703        4
    91         0.1784238        2       200         2.6666554        4
    92         0.2871788        2       201         3.7063358        4
    93         0.4034970        2       202         4.1943164        4
    94         0.6236176        2       203         4.2866551        4
    95         0.7333412        2       204         4.7119634        4
    96         0.7792862        2       205         5.8329501        4
    97         0.8890957        2       206         6.1187968        4
    98         1.0362678        2       207         6.3439991        4
    99         1.4222682        2       208         6.4951861        4
   100         1.5029962        2       209        10.6492262        4
   101         1.6381830        2       210        10.9708317        4
   102         2.0812839        2       211        11.9997182        4
   103         2.2091157        2       212        12.7315259        4
   104         2.2201938        2       213        26.2690728        4
   105         2.2313003        2       214        47.0727803        4
   106         2.5159328        2       215        98.5309807        4
   107         2.5938498        2       216       103.3086439        4
   108         3.4266737        2       217       114.9702703        4
   109         3.9334248        2       218       198.5532644        4
------------------------------------------------------------------------
  -20.6500907826230       -11.5121248632800       -1.29459439423060     
 -0.801577081282033      -0.540516768587268      -0.506817288992523     
 -0.506817288992522       6.027398521791441E-002  6.880116712582678E-002
  0.157439706622920       0.207624569829151       0.222502662594832     
  0.300568051520068       0.325061546258825       0.427973847356249     
  0.513113587579697       0.549562274142500       0.709256667404697     
  0.741309222700423       0.821729662400542       0.862619173871697     
  0.879314355915597        1.12944584850748        1.36999160650546     
   1.58151652394573        1.59873079921311        1.68515211259556     
   1.91572765846468        1.96652514459646        2.07125879632897     
   2.13052012833111        2.22841877053843        2.28987033131037     
   2.41773860352612        2.62152246728735        2.66665536353239     
   2.98501261615130        3.70633582106546        3.90186092943819     
   4.14532568031055        4.19431639777322        4.28665508311650     
   4.42687679524949        4.71196337909638        4.75468334870831     
   5.27091003600960        5.83295006716555        6.06084131451202     
   6.11879677580573        6.19751639897956        6.34399908514948     
   6.49518609975095        7.11239598347875        7.92238266869590     
[...]
 Convergence information after    13 iterations: 
 Largest element of residual vector : -0.14390494E-05.
 Largest element of DIIS residual   : -0.13588842E-05.
 Convergence information after    14 iterations: 
 Largest element of residual vector : -0.88947101E-06.
 Largest element of DIIS residual   : -0.80220448E-06.
 Convergence information after    15 iterations: 
 Largest element of residual vector : -0.41856913E-06.
 Largest element of DIIS residual   : -0.24893142E-06.
 Convergence information after    16 iterations: 
 Largest element of residual vector : -0.15542344E-06.
 Largest element of DIIS residual   : -0.13820331E-06.
 Convergence information after    17 iterations: 
 Largest element of residual vector : -0.69189528E-07.
 Largest element of DIIS residual   : -0.61313182E-07.
 Perturbed amplitude equations converged in    17 iterations.
  Dominant contributions to perturbed wavefunction:
    7    7  140   45  -0.2288653863 ABAB
    7    7   45  140  -0.2288653863 ABAB
    7    7  140   22  -0.2126728549 ABAB
    7    7   22  140  -0.2126728549 ABAB
    7    7  140   39  -0.2113969664 ABAB
    7    7   39  140  -0.2113969664 ABAB
    7    7  140   28   0.2036177474 ABAB
    7    7   28  140   0.2036177474 ABAB
    7    0   35    0   0.1648125274 AA  
    7    7  140   29  -0.1629414241 ABAB
    7    7   29  140  -0.1629414241 ABAB
    7    7  140   57   0.1590768461 ABAB
    7    7   57  140   0.1590768461 ABAB
    7    7  140   54   0.1466759818 ABAB
    7    7   54  140   0.1466759818 ABAB
    7    6   45   89  -0.1431510293 ABAB
    6    7   89   45  -0.1431510293 ABAB
    7    0   39    0   0.1350846971 AA  
    7    7  140   16   0.1332226512 ABAB
    7    7   16  140   0.1332226512 ABAB
  norm of converged amps    1.70776473655865     
 Starting iterative solution of the perturbed Lambda equations.
 The DIIS procedure is used to accelerate convergence.
 Convergence criterion is 10**(-7).
 Maximum number of iterations is 100.
 Convergence information after     1 iterations: 
 Largest element of residual vector :  0.77247817E-01.
 Largest element of DIIS residual   :  0.77247817E-01.
 Convergence information after     2 iterations: 
 Largest element of residual vector :  0.15482782E-01.
 Largest element of DIIS residual   :  0.11649218E-01.
 Convergence information after     3 iterations: 
 Largest element of residual vector : -0.65083030E-02.
 Largest element of DIIS residual   : -0.61902135E-02.
 Convergence information after     4 iterations: 
 Largest element of residual vector : -0.38549220E-02.
 Largest element of DIIS residual   : -0.34684919E-02.
 Convergence information after     5 iterations: 
 Largest element of residual vector : -0.32209340E-02.
 Largest element of DIIS residual   : -0.24662318E-02.
 Convergence information after     6 iterations: 
 Largest element of residual vector : -0.16054378E-02.
 Largest element of DIIS residual   : -0.71293466E-03.
 Convergence information after     7 iterations: 
 Largest element of residual vector : -0.73379035E-03.
 Largest element of DIIS residual   : -0.34473177E-03.
 Convergence information after     8 iterations: 
 Largest element of residual vector : -0.24154426E-03.
 Largest element of DIIS residual   : -0.15626563E-03.
 Convergence information after     9 iterations: 
 Largest element of residual vector : -0.10131343E-03.
 Largest element of DIIS residual   : -0.45819914E-04.
 Convergence information after    10 iterations: 
 Largest element of residual vector : -0.41408739E-04.
 Largest element of DIIS residual   : -0.18498014E-04.
 Convergence information after    11 iterations: 
 Largest element of residual vector : -0.85467128E-05.
 Largest element of DIIS residual   : -0.49026426E-05.
 Convergence information after    12 iterations: 
 Largest element of residual vector : -0.23980631E-05.
 Largest element of DIIS residual   : -0.18552556E-05.
 Convergence information after    13 iterations: 
 Largest element of residual vector : -0.15669623E-05.
 Largest element of DIIS residual   : -0.13561319E-05.
 Convergence information after    14 iterations: 
 Largest element of residual vector : -0.66483100E-06.
 Largest element of DIIS residual   : -0.52975179E-06.
 Convergence information after    15 iterations: 
 Largest element of residual vector : -0.37439439E-06.
 Largest element of DIIS residual   : -0.14398682E-06.
 Convergence information after    16 iterations: 
 Largest element of residual vector : -0.89705117E-07.
 Largest element of DIIS residual   : -0.90690502E-07.
 Perturbed Lambda equations converged in    16 iterations.
  Dominant contributions to perturbed wavefunction:
    7    7  140   45  -0.1923132452 ABAB
    7    7   45  140  -0.1923132452 ABAB
    7    7  140   22  -0.1784072664 ABAB
    7    7   22  140  -0.1784072664 ABAB
    7    7  140   39  -0.1759908421 ABAB
    7    7   39  140  -0.1759908421 ABAB
    7    7  140   28   0.1734578435 ABAB
    7    7   28  140   0.1734578435 ABAB
    7    7  140   29  -0.1339094103 ABAB
    7    7   29  140  -0.1339094103 ABAB
    7    7  140   57   0.1325899140 ABAB
    7    7   57  140   0.1325899140 ABAB
    7    7  140   54   0.1239503458 ABAB
    7    7   54  140   0.1239503458 ABAB
    7    6   45   89  -0.1188096991 ABAB
    6    7   89   45  -0.1188096991 ABAB
    7    7  140   16   0.1100010310 ABAB
    7    7   16  140   0.1100010310 ABAB
    7    6   22   89  -0.1093467809 ABAB
    6    7   89   22  -0.1093467809 ABAB
        The DBOC first-order density matrix is being calculated 
             (Symmetry block 3, perturbation   2)
 term   3.09515782854019     
 final tnorm  0.808654165433345     
  norm contr. I: |<0|L dT/dx|0>|^2   0.000000000000000E+000
  norm contr. II: <0|[nabla(1+L)e-T][nabla e^T]|0>   3.09515782854019     
  total norm contribution   3.09515782854019     
 oo  7.826545717763977E-003
 vv  -20.5905516555390     
 vo  6.153905775159107E-002
  Correlated perturbed 1-el contribution to DBOC  -20.5211860520696       cm**-1
  SUM_I |dc_I/dx|^2 contribution to DBOC   10.3545371658355       cm**-1
 
 
  The total diagonal Born-Oppenheimer correction (DBOC) is:      0.0038696422 a.u.
  The total diagonal Born-Oppenheimer correction (DBOC) is:        849.288305 cm-1
 
 Total CC energy including DBOC  -113.102495232047     
 First-order density matrix is being calculated  (Symmetry block 3, perturbation   2)
 Calculation of the contributions of <pq||rs> to dI(i,j)/dx required   3.3 seconds.
 Calculation of the contributions of <pq||rs> to dI(a,b)/dx required  17.0 seconds.
 Calculation of the contributions of <pq||rs> to dI(i,a)/dx required   9.8 seconds.
 First-order Z-vector equations are solved for 1 perturbation.
 Convergence reached after  19 iterations.
        U*G(pq,rs) contribution is being calculated
             (Symmetry block 3, perturbation   2)

 CCSD contribution to force constants 

        0.0000000000        0.0000000000        0.0000000000
        0.0000000000        0.0000000000        0.0000000000
        0.0000000000        0.0000000000        0.0000000000
        0.0000000000        0.0000000000        0.0000000000
        0.0000000000        0.0000000000        0.0000000000
        0.0000000000        0.0000000000        0.0000000000
        0.0000000000        0.0000000000        0.0000000000
        0.0000000000        0.0000000000        0.0000000000
        0.0000000000        0.0000000000        0.0000000000
        0.0000000000        0.0000000000        0.0000000000
        0.0000000000        0.0000000000        0.0000000000
        0.0000000000       -3.3034477434        3.3034477434

 CCSD contribution to dipole derivatives 

        0.0000000000        0.0000000000        0.0000000000
        0.0000000000        0.0000000000        0.0000000000
        0.0000000000        0.0000000000        0.0000000000
        0.0000000000        0.0000000000       -0.0570431659
        0.0000000000        0.0000000000        0.0000000000
        0.0000000000        0.0000000000        0.0000000000
 @CHECKOUT-I, Total execution time (CPU/WALL):     1343.77/     529.24 seconds.
--executable xsdcc finished with status     0 in      529.47 seconds (walltime).
 --invoking executable--
/nfs/workspaces/public/cfour_mpi/bin/xanti
 @GETMEM-I,  Allocated    3814 MB of main memory.
 CCSD MO derivative gammas will be sorted to Mulliken order.
 @CHECKOUT-I, Total execution time (CPU/WALL):       19.35/      31.17 seconds.
--executable xanti finished with status     0 in       31.35 seconds (walltime).
 --invoking executable--
/nfs/workspaces/public/cfour_mpi/bin/xbcktrn
 @GETMEM-I,  Allocated    3814 MB of main memory.
 CCSD MO derivative gammas will be transformed to the AO basis.
 @CHECKOUT-I, Total execution time (CPU/WALL):       30.71/      12.72 seconds.
--executable xbcktrn finished with status     0 in       12.80 seconds (walltime).
 --invoking executable--
/nfs/workspaces/public/cfour_mpi/bin/xvdint
 @GETMEM-I,  Allocated    3814 MB of main memory.
 One- and two-electron integral derivatives are calculated
 for RHF-CC/MBPT hessians and dipole derivatives.
 Spherical gaussians are used.
  magnet F F
                    8722  records have been written to the Sort file.
  Total length of Sort file :             178609116  words.
 Evaluation of 2el integral derivatives

                      Two-electron integral gradient
                      ------------------------------

                         C #1 z     0.0000000000
                         O #2 z     0.0000000000


 C #1       0.0000000000            0.0552888853            0.0000000000
 O #2       0.0000000000           -0.0552888853            0.0000000000


 Evaluation of 2e integral derivatives required  360.13 seconds.
  contribution to Hessian
        0.0000000000        0.0000000000        0.0000000000
        0.0000000000        0.0552888853       -0.0552888853
 @CHECKOUT-I, Total execution time (CPU/WALL):      360.12/      72.55 seconds.
--executable xvdint finished with status     0 in       72.74 seconds (walltime).
 --invoking executable--
/nfs/workspaces/public/cfour_mpi/bin/xanti
 @GETMEM-I,  Allocated    3814 MB of main memory.
 CCSD MO gammas will be sorted to Mulliken order.
 @CHECKOUT-I, Total execution time (CPU/WALL):       15.10/      58.37 seconds.
--executable xanti finished with status     0 in       58.51 seconds (walltime).
 --invoking executable--
/nfs/workspaces/public/cfour_mpi/bin/xbcktrn
 @GETMEM-I,  Allocated    3814 MB of main memory.
 CCSD MO gammas will be transformed to the AO basis.
 @CHECKOUT-I, Total execution time (CPU/WALL):       47.79/      12.45 seconds.
--executable xbcktrn finished with status     0 in       12.53 seconds (walltime).
 --invoking executable--
/nfs/workspaces/public/cfour_mpi/bin/xvdint
 @GETMEM-I,  Allocated    3814 MB of main memory.
 One- and two-electron integral derivatives are calculated
 for RHF-CC/MBPT hessians and dipole derivatives.
 Spherical gaussians are used.
  magnet F F

                     Kinetic energy integral gradient
                     --------------------------------

                         C #1 z    -0.5860139407
                         O #2 z     0.5860139407


 C #1       0.0000000000            0.0000000000           -0.5860139407
 O #2       0.0000000000            0.0000000000            0.5860139407



                   Nuclear attraction integral gradient
                   ------------------------------------

                         C #1 z    14.3999984750
                         O #2 z   -14.3999984750


 C #1       0.0000000000            0.0000000000           14.3999984750
 O #2       0.0000000000            0.0000000000          -14.3999984750



                      Reorthonormalization gradient
                      -----------------------------

                         C #1 z     0.0000000000
                         O #2 z     0.0000000000


 C #1       0.0000000000            0.0000000000            0.0000000000
 O #2       0.0000000000            0.0000000000            0.0000000000



                     Kinetic energy integral Hessian
                     -------------------------------


           Symmetry 1

           C #1 z      O #2 z

 C #1 z    0.613117
 O #2 z   -0.613117    0.613117


           Symmetry 2

           C #1 x      O #2 x

 C #1 x   -0.466800
 O #2 x    0.466800   -0.466800


           Symmetry 3

           C #1 y      O #2 y

 C #1 y   -0.466800
 O #2 y    0.466800   -0.466800




           C #1 x      C #1 y      C #1 z      O #2 x      O #2 y      O #2 z

 C #1 x   -0.466800
 C #1 y    0.000000   -0.466800
 C #1 z    0.000000    0.000000    0.613117

 O #2 x    0.466800    0.000000    0.000000   -0.466800
 O #2 y    0.000000    0.466800    0.000000    0.000000   -0.466800
 O #2 z    0.000000    0.000000   -0.613117    0.000000    0.000000    0.613117




                   Nuclear attraction integral Hessian
                   -----------------------------------


           Symmetry 1

           C #1 z      O #2 z

 C #1 z   -8.816080
 O #2 z    8.816080   -8.816080


           Symmetry 2

           C #1 x      O #2 x

 C #1 x    8.022531
 O #2 x   -8.022531    8.022531


           Symmetry 3

           C #1 y      O #2 y

 C #1 y    8.022531
 O #2 y   -8.022531    8.022531




           C #1 x      C #1 y      C #1 z      O #2 x      O #2 y      O #2 z

 C #1 x    8.022531
 C #1 y    0.000000    8.022531
 C #1 z    0.000000    0.000000   -8.816080

 O #2 x   -8.022531    0.000000    0.000000    8.022531
 O #2 y    0.000000   -8.022531    0.000000    0.000000    8.022531
 O #2 z    0.000000    0.000000    8.816080    0.000000    0.000000   -8.816080




                Highest order reorthonormalization Hessian
                ------------------------------------------


           Symmetry 1

           C #1 z      O #2 z

 C #1 z    0.000000
 O #2 z    0.000000    0.000000


           Symmetry 2

           C #1 x      O #2 x

 C #1 x    0.000000
 O #2 x    0.000000    0.000000


           Symmetry 3

           C #1 y      O #2 y

 C #1 y    0.000000
 O #2 y    0.000000    0.000000




           C #1 x      C #1 y      C #1 z      O #2 x      O #2 y      O #2 z




                Electronic contributions to dipole moment
                -----------------------------------------

                               au             Debye

                    z     -0.73904290     -1.87846002

  Conversion factor used: 1 a.u. =   2.54174691 Debye 



   Electronic contributions to static part of dipole moment derivatives
   --------------------------------------------------------------------


                     Total dipole moment derivatives
                     -------------------------------


           Symmetry 1
                              Ez

               C #1 z    -5.61778928
               O #2 z    -8.38221072

           Symmetry 2
                              Ex

               C #1 x    -5.67255370
               O #2 x    -8.32744630

           Symmetry 3
                              Ey

               C #1 y    -5.67255370
               O #2 y    -8.32744630



                       Ex          Ey          Ez

      C #1    x   -5.672554    0.000000    0.000000
      C #1    y    0.000000   -5.672554    0.000000
      C #1    z    0.000000    0.000000   -5.617789

      O #2    x   -8.327446    0.000000    0.000000
      O #2    y    0.000000   -8.327446    0.000000
      O #2    z    0.000000    0.000000   -8.382211

 Evaluation of 1e integral derivatives required    1.62 seconds.
                    8815  records have been written to the Sort file.
  Total length of Sort file :             180513570  words.
 Evaluation of 2el integral derivatives

                      Two-electron integral gradient
                      ------------------------------

                         C #1 z    -7.6220479532
                         O #2 z     7.6220479532


 C #1       0.0000000000            0.0000000000           -7.6220479532
 O #2       0.0000000000            0.0000000000            7.6220479532


 Evaluation of 2e integral derivatives required  731.76 seconds.

                            Molecular gradient
                            ------------------

                         C #1 z     0.6096222211
                         O #2 z    -0.6096222211


 C #1       0.0000000000            0.0000000000            0.6096222211
 O #2       0.0000000000            0.0000000000           -0.6096222211


  Molecular gradient norm 0.862E+00

                            Molecular hessian
                            -----------------


           Symmetry 1

           C #1 z      O #2 z

 C #1 z   18.676719
 O #2 z  -18.676719   18.676719


           Symmetry 2

           C #1 x      O #2 x

 C #1 x    3.508361
 O #2 x   -3.508361    3.508361


           Symmetry 3

           C #1 y      O #2 y

 C #1 y    3.508361
 O #2 y   -3.508361    3.508361




           C #1 x      C #1 y      C #1 z      O #2 x      O #2 y      O #2 z

 C #1 x    3.508361
 C #1 y    0.000000    3.508361
 C #1 z    0.000000    0.000000   18.676719

 O #2 x   -3.508361    0.000000    0.000000    3.508361
 O #2 y    0.000000   -3.508361    0.000000    0.000000    3.508361
 O #2 z    0.000000    0.000000  -18.676719    0.000000    0.000000   18.676719




                           Total dipole moment
                           -------------------

                               au             Debye

                    z      0.43343116      1.10167231

  Conversion factor used: 1 a.u. =   2.54174691 Debye 



                     Total dipole moment derivatives
                     -------------------------------


           Symmetry 1
                              Ez

               C #1 z     0.60218260
               O #2 z    -0.60218260

           Symmetry 2
                              Ex

               C #1 x     0.15537698
               O #2 x    -0.15537698

           Symmetry 3
                              Ey

               C #1 y     0.15537698
               O #2 y    -0.15537698



                       Ex          Ey          Ez

      C #1    x    0.155377    0.000000    0.000000
      C #1    y    0.000000    0.155377    0.000000
      C #1    z    0.000000    0.000000    0.602183

      O #2    x   -0.155377    0.000000    0.000000
      O #2    y    0.000000   -0.155377    0.000000
      O #2    z    0.000000    0.000000   -0.602183

 @CHECKOUT-I, Total execution time (CPU/WALL):      733.37/     124.46 seconds.
--executable xvdint finished with status     0 in      124.63 seconds (walltime).
 --invoking executable--
/nfs/workspaces/public/cfour_mpi/bin/xjoda
  @GTFLGS-I, Hessian will be transformed to curvilinear coordinates.
  @GTFLGS-I, Hessian will be transformed to curvilinear coordinates.
  igrd and ihes are                      0                     1
  gradient from JOBARC 
   0.000000000000000   0.000000000000000   0.609622221139831
   0.000000000000000   0.000000000000000  -0.609622221139831
 
  @PROJFCM-I, Projecting force constant matrix onto totally symmetric subspace.
  Largest difference between matrix elements of symmetrized
  and unsymmetrized FCM :    -0.5528910663E-12.
  read isotopes from ZMAT file 
 
  Summary of diagonal Born-Oppenheimer correction at the correlated level
  The total diagonal Born-Oppenheimer correction (DBOC) is:      0.0038696422 a.u.
  The total diagonal Born-Oppenheimer correction (DBOC) is:        849.288305 cm-1
  The total diagonal Born-Oppenheimer correction (DBOC) is:            10.160 kJ/mole
  hellooooooo 
  readis is  F
 
 @CHECKOUT-I, Total execution time (CPU/WALL):        0.02/       0.10 seconds.
--executable xjoda finished with status     0 in        0.16 seconds (walltime).
  The final electronic energy is      -113.102495232046564 a.u. 
  This computation required                         4432.77 seconds (walltime).
