 --invoking executable--
/nfs/workspaces/public/cfour_mpi/bin/xjoda


   *************************************************************************
         <<<     CCCCCC     CCCCCC   |||     CCCCCC     CCCCCC   >>>
       <<<      CCC        CCC       |||    CCC        CCC         >>>
      <<<      CCC        CCC        |||   CCC        CCC            >>>
    <<<        CCC        CCC        |||   CCC        CCC              >>>
      <<<      CCC        CCC        |||   CCC        CCC            >>>
       <<<      CCC        CCC       |||    CCC        CCC         >>>
         <<<     CCCCCC     CCCCCC   |||     CCCCCC     CCCCCC   >>>
   *************************************************************************

     ****************************************************************
     * CFOUR Coupled-Cluster techniques for Computational Chemistry *
     ****************************************************************
 

   Department of Chemistry                Institut fuer Physikalische Chemie
   University of Florida                  Universitaet Mainz
   Gainesville, FL 32611, USA             D-55099 Mainz, Germany

   Department of Chemistry                Fakultaet fuer Chemie und Biowiss.
   Johns Hopkins University               Karlsruher Institut fuer Technologie
   Baltimore, MD 21218, USA               D-76131 Karlsruhe, Germany

   Department of Chemistry                Department of Physical Chemistry
   Southern Methodist University          Eotvos Lorand University
   Dallas, TX 75275, USA                  H-1053 Budapest, Hungary

 
                       Version 2.1
 
                     vincent.theory.phys.ucl.ac.uk                     
                     Mon  3 Mar 17:40:17 GMT 2025                      
                     integer*8 version is running
 
********************************************************************************
*                          Input from ZMAT file                                *
********************************************************************************
Carbon Monoxide DBOC calculation                                                
C                                                                               
O 1 r                                                                           
                                                                                
r=1.706896551724138                                                             
                                                                                
                                                                                
*CFOUR(CALC=CCSD,BASIS=AUG-PCVQZ,SCF_CONV=10                                    
CC_CONV=14,DBOC=ON,MEMORY=500000000                                             
ZFIELD=200)                                                                     
                                                                                
%isotopes                                                                       
12                                                                              
18                                                                              
********************************************************************************
  @GTFLGS-I, Hessian will be transformed to curvilinear coordinates.
    -------------------------------------------------------------------
                    CFOUR Control Parameters 
    -------------------------------------------------------------------
        External           Internal           Value            Units
          Name               Name
    -------------------------------------------------------------------
       ABCDTYPE             IABCDT         STANDARD    [  0]    ***   
       ANHARMONIC           IANHAR         OFF         [  0]    ***   
       ANH_ALGORIT          IANALG         STANDARD    [  0]    ***   
       ANH_DERIVAT          IANDER         SECOND      [  1]    ***   
       ANH_MODE             ANHMOD         VIBRATION   [  0]    ***   
       ANH_STEPSIZ          ICUBST             50000          x 10-6  
       ANH_SYMMETR          IANHSM         ABELIAN     [  0]    ***   
       AO_LADDERS           IAOLAD         SINGLEPASS  [  1]    ***   
       AV_SCF               IAVSCF         OFF         [  0]    ***   
       BASIS                IBASIS         AUG-PCVQZ   [ 52]    ***   
       BOTHVECTORS          BOTHVC         OFF         [  0]    ***   
       BOX_POTENT           IPIAB          OFF         [  0]    ***   
       BREIT                IBREIT         OFF         [  0]    ***   
       BRUCK_CONV           IBRTOL          10D-  4             ***   
       BRUECKNER            IBRKNR         OFF         [  0]    ***   
       BUFFERSIZE           IBUFFS              4096            ***   
       CACHE_RECS           ICHREC             10               ***   
       CALCLEVEL            ICLLVL         CCSD        [ 10]    ***   
       CCORBOPT             ICCORB         OFF         [  0]  x 0.01  
       CC_CONV              ICCCNV          10D- 14             ***   
       CC_EXPORDER          ICCEOR              5               ***   
       CC_EXTRAPOL          ICCEXT         DIIS        [  1]    ***   
       CC_GUESS             ICCGES         MP2         [  0]    ***   
       CC_MAXCYC            ICCCYC            100              cycles 
       CC_PROGRAM           ICCPRO         VCC         [  0]    ***   
       CHARGE               ICHRGE              0               ***   
       CHOLESKY             ICHOLE         OFF         [  0]    ***   
       CIS_CONV             ICISTL              5               ***   
       COMM_SIZE            IPSIZE            ***               ***   
       CONSTANT             ICONST         OLD         [  1]    ***   
       CONTINUUM            ICONTU         NONE        [  0]    ***   
       CONTRACTION          ICNTYP         GENERAL     [  1]    ***   
       COORDINATES          ICOORD         INTERNAL    [  0]    ***   
       CPHF_CONVER          ICPHFT          10D- 16             ***   
       CPHF_MAXCYC          ICPHFC             64              cycles 
       CUBIC                ICUBIC         OFF         [  0]    ***   
       CURVILINEAR          ICURVY         ON          [  1]    ***   
       DBOC                 IDBOC          ON          [  1]    ***   
       DCT                  IDCT           OFF         [  0]    ***   
       DERIV_LEV            IDRLVL         SECOND      [  2]    ***   
       DEVMEM_SIZE          IDVMEM          50000000           MByte  
       DIAG_MRCC            IEOMST          10D-  0             ***   
       DIFF_TYPE            IDIFTY         RELAXED     [  0]    ***   
       DIRECT               IDIRCT         OFF         [  0]    ***   
       DROPMO               IDRPMO      NONE         
       ECP                  IECP           OFF         [  0]    ***   
       EIGENVECTOR          IVEC                1               ***   
       EL_ANHARM            IELANH         OFF         [  0]    ***   
       EOMFOLLOW            IEOMSR         ENERGY      [  0]    ***   
       EOMIP                IEOMIP         OFF         [  0]    ***   
       EOMLEVEL             HBARFM         SAME        [  0]    ***   
       EOM_MRCC             IMRCCE         NEW         [  1]    ***   
       EOM_NONIT            EOMNON         OFF         [  0]    ***   
       EOM_NSING            IEOMSI          10D-  0             ***   
       EOM_NSTATES          IMRCCD         DAVIDSON    [  0]    ***   
       EOM_NTRIP            IEOMTR          10D-  0             ***   
       EOM_ORDER            IEXORD         ENERGY      [  0]    ***   
       EOM_PROPSTA          IEOMST              0               ***   
       ESTATE_CONV          IEXTOL          10D-  5             ***   
       ESTATE_DIAG          IEXDIG         ITERATIVE   [  0]    ***   
       ESTATE_LOCK          IESLOC         ON          [  1]    ***   
       ESTATE_MAXC          IEXMXC             40               ***   
       ESTATE_PROP          IEXPRP         OFF         [  0]    ***   
       EVAL_HESS            IRECAL              0            # of cyc.
       EXCITATION           IEXCIT              0               ***   
       EXCITE               IEXCIT         NONE        [  0]    ***   
       EXTERN_POT           IEXPOT         OFF         [  0]    ***   
       FCGRADNEW            IFCGNW         OFF         [  0]    ***   
       FC_FIELD             IFINFC              0             x 10-6  
       FD_CALTYPE           IFDCAL         GRADONLY    [  0]    ***   
       FD_PROJECT           IFDPRJ         OFF         [  1]    ***   
       FD_STEPSIZE          IDISFD              0            10-4 bohr
       FD_USEGROUP          IFDGRP         FULL        [  0]    ***   
       FILE_RECSIZ          IFLREC              4096           words  
       FINITE_PERT          IFIPER              0             x 10-6  
       FIXGEOM              IFIXGM         OFF         [  0]    ***   
       FOCK                 IFOCK          AO          [  1]    ***   
       FREQ_ALGORI          IVIALG         STANDARD    [  0]    ***   
       FROZEN_CORE          IFROCO         OFF         [  0]    ***   
       GAMMA_ABCD           IGABCD         STORE       [  0]    ***   
       GAMMA_ABCI           IGABCI         STORE       [  0]    ***   
       GENBAS_1             IGNBS1              0               ***   
       GENBAS_2             IGNBS2              0               ***   
       GENBAS_3             IGNBS3              0               ***   
       GENBAS_4             IGNBS4              0               ***   
       GEO_CONV             ICONTL              5              H/bohr 
       GEO_MAXCYC           IOPTCY             50               ***   
       GEO_MAXSTEP          IMXSTP            300            millibohr
       GEO_METHOD           INR            SINGLE_POINT[  5]    ***   
       GIAO                 IGIAO          OFF         [  1]    ***   
       GIMIC                IGIMIC         OFF         [  0]    ***   
       GRID                 IGRID          OFF         [  0]    ***   
       GRID_ALGO            IGALGO         SERIAL      [  0]    ***   
       GUESS                IGUESS         MOREAD      [  0]    ***   
       HBAR                 IHBAR          OFF         [  0]    ***   
       HESS_TYPE            IHESTP         SCF         [  0]    ***   
       HF2_FILE             IHF2Fl         USE         [  1]    ***   
       HFSTABILITY          ISTABL         OFF         [  0]    ***   
       INCORE               INCORE         OFF         [  0]    ***   
       INPUT_MRCC           IMRCC          ON          [  1]    ***   
       INTEGRALS            INTTYP         VMOL        [  1]    ***   
       JODA_PRINT           IJPRNT              0               ***   
       KEYWORD_OUT          IDMPKW         NO          [  0]    ***   
       LINDEP_TOL           ILINDP              8               ***   
       LINEQ_CONV           IZTACN          10D-  7           cycles  
       LINEQ_EXPOR          ILMAXD              5               ***   
       LINEQ_MAXCY          ILMAXC            100               ***   
       LINEQ_TYPE           ILTYPE         DIIS        [  1]    ***   
       LOCK_ORBOCC          ILOCOC         OFF         [  0]    ***   
       MEMORY_SIZE          IMEMSZ         500000000           words  
       MEM_UNIT             IMEMU          INTEGERWORDS[  0]    ***   
       MRCC                 IMRCCC         OFF         [  0]    ***   
       MULTIPLICTY          IMULTP              1               ***   
       NACOUPLING           IVCOUP         OFF         [  0]    ***   
       NEGEVAL              IDIE           ABORT       [  0]    ***   
       NEWNORM              INEWNO         OFF         [  0]    ***   
       NON-HF               INONHF         OFF         [  0]    ***   
       NTOP_TAMP            ITOPT2             15               ***   
       NUC_MODEL            INUCMO         POINT       [  0]    ***   
       OCCUPATION           IOCCU   ESTIMATED BY SCF 
       OPEN-SHELL           IOPEN          SPIN-ORBITAL[  0]    ***   
       OPTVIB               IOPTVB         OFF         [  0]    ***   
       ORBITALS             IORBTP         STANDARD    [  0]    ***   
       PARALLEL             IPARAL         ON          [  1]    ***   
       PARA_INT             IPINTS         ON          [  1]    ***   
       PARA_PRINT           IPPRIN              0               ***   
       PERT_ORB             IPTORB         STANDARD    [  0]    ***   
       POINTS               IGRDFD              0               ***   
       PRINT                IPRNT               0               ***   
       PROPS                IPROPS         OFF         [  0]    ***   
       PROP_INTEGR          IINTYP         INTERNAL    [  0]    ***   
       PSI                  IPSI           OFF         [  0]    ***   
       QC_ALG               IQCALG         FLM         [  0]    ***   
       QC_LINALG            IQCLIN         TRIDIAG     [  2]    ***   
       QC_MAXCYC            IQCMAX          10D-100           cycles  
       QC_MAXSCFCY          IQCMSC          10D- 15           cycles  
       QC_RTRUST            IQCRTR          10D-  0           x 10-3  
       QC_SKIPSCF           IQCSKI         OFF         [  0]    ***   
       QC_START             IQCSTA          10D-  1             ***   
       QRHFGUESS            IQGUES         OFF         [  0]    ***   
       QUARTIC              IQUART         OFF         [  0]    ***   
       RAMAN_INT            IRAMIN         OFF         [  0]    ***   
       RAMAN_ORB            IRAMRE         UNRELAXED   [  0]    ***   
       RDO                  IRDOFM         ON          [  1]    ***   
       REDUCE_REPR          REDREP         Ir          [  0]    ***   
       REFERENCE            IREFNC         RHF         [  0]    ***   
       RELATIVIST           IRELAT         OFF         [  0]    ***   
       RELAX_DENS           IRDENS         ON          [  1]    ***   
       RESET_FLAGS          IRESET         OFF         [  0]    ***   
       RESTART_CC           ICCRES         OFF         [  0]    ***   
       ROT_EVEC             ROTVEC              0               ***   
       SAVE_INTS            ISVINT         OFF         [  0]    ***   
       SCALE_ON             ISTCRT              0               ***   
       SCF_CONV             ISCFCV          10D- 10             ***   
       SCF_DAMPING          IDAMP               0             x 10-3  
       SCF_EXPORDE          IRPPOR              6               ***   
       SCF_EXPSTAR          IRPPLS              8               ***   
       SCF_EXTRAPO          IRPP           ON          [  1]    ***   
       SCF_MAXCYC           ISCFCY            150              cycles 
       SCF_NOSTOP           ISCFST         OFF         [  0]    ***   
       SCF_PRINT            ISCFPR              0               ***   
       SCF_PROG             ISCFPR         SCF         [  0]    ***   
       SD_FIELD             IFINSD              0             x 10-6  
       SOPERT               IPERSO         OFF         [  0]    ***   
       SPHERICAL            IDFGHI         ON          [  1]    ***   
       SPINORBIT            ISOCAL         OFF         [  0]    ***   
       SPINROTATIO          ISRCON         OFF         [  0]    ***   
       SPIN_FLIP            ISPFLP         OFF         [  0]    ***   
       SPIN_ORBIT           ISPORB         OFF         [  0]    ***   
       SPIN_SCAL            ISCSMP         OFF         [  0]    ***   
       STEEPSCALE           ISTPSC              1000          x 10-3  
       SUBGROUP             ISUBGP         DEFAULT     [  0]    ***   
       SUBGRPAXIS           ISBXYZ         X           [  0]    ***   
       SYMMETRY             ISYM           ON          [  0]    ***   
       SYM_CHECK            ISYMCK         OVERRIDE    [  1]    ***   
       T3_EXTRAPOL          IT3EXT         OFF         [  0]    ***   
       T4_EXTRAPOL          IT4EXP         OFF         [  0]    ***   
       TAMP_SUM             IEVERY              5               ***   
       TESTSUITE            ITESTS         OFF         [  0]    ***   
       THERMOCH             ITHERM         OFF         [  0]    ***   
       TOL_CHOLESK          ITOLCH          10D-  4             ***   
       TRANGRAD             IRESRM         OFF         [  0]    ***   
       TRANS_INV            ITRAIN         IGNORE      [  1]    ***   
       TREAT_PERT           ITREAT         SIMULTANEOUS[  0]    ***   
       TRIP_ALGORI          ITRALG         NORMAL      [  0]    ***   
       UIJ_THRESHO          IUIJTH              1               ***   
       UNITS                IUNITS         ANGSTROM    [  0]    ***   
       UNOS                 IUNOS          OFF         [  0]    ***   
       UPDATE_HESS          IHUPDT         ON          [  1]    ***   
       VIBPHASE             ISETPH         STANDARD    [  0]    ***   
       VIBRATION            IVIB           ANALYTIC    [  1]    ***   
       VIB_ALGORIT          IGEALG         STANDARD    [  0]    ***   
       VNATORB              IVNORB         OFF         [  0]    ***   
       VTRAN                IVTRAN         FULL/PARTIAL[  0]    ***   
       XFIELD               IXEFLD              0             x 10-6  
       XFORM_TOL            IXFTOL          10D- 11             ***   
       YFIELD               IYEFLD              0             x 10-6  
       ZFIELD               IZEFLD            200             x 10-6  
       ZSCALE_EXP           IZEXPS         OFF         [  0]    ***   
    -------------------------------------------------------------------
   2 entries found in Z-matrix 
   Job Title : Carbon Monoxide DBOC calculation                                                
   There are  1 unique internal coordinates.
   Of these,  0 will be optimized.
   User supplied Z-matrix: 
--------------------------------------------------------------------------------
       SYMBOL    BOND      LENGTH    ANGLE     ANGLE     DIHED     ANGLE
                  TO      (ANGST)    WRT      (DEG)      WRT      (DEG)
--------------------------------------------------------------------------------
        C    
        O          1         r    
                  *Initial values for internal coordinates* 
                      Name             Value
                        r               1.7068965517
--------------------------------------------------------------------------------
  read isotopes from ZMAT file 
   Rotational constants (in cm-1): 
          0.8036329978             0.8036329978
   Rotational constants (in MHz): 
      24092.3145485746         24092.3145485746
********************************************************************************
   The full molecular point group is CXv .
   The largest Abelian subgroup of the full molecular point group is C2v .
   The computational point group is C2v .
********************************************************************************
--------------------------------------------------------------------------------
   Analysis of internal coordinates specified by Z-matrix 
--------------------------------------------------------------------------------
   *The nuclear repulsion energy is   14.881101478787878 a.u.
   *There is   1 degree of freedom within the tot. symm. molecular subspace.
   *Z-matrix requests optimization of   0 coordinates.
   *The optimization is constrained.
   *The following   1 parameters can have non-zero 
    derivatives within the totally symmetric subspace:
             r    [ 1]
   *The following   0 parameters are to be optimized:

   *The following coordinates must be varied in an  unconstrained optimization.
             r    [ 1]
--------------------------------------------------------------------------------


 ----------------------------------------------------------------
         Coordinates used in calculation (QCOMP) 
 ----------------------------------------------------------------
 Z-matrix   Atomic            Coordinates (in bohr)
  Symbol    Number           X              Y              Z
 ----------------------------------------------------------------
     C         6        -0.00000000     0.00000000     1.93530449
     O         8         0.00000000     0.00000000    -1.29026319
 ----------------------------------------------------------------
 
   Interatomic distance matrix (Angstroms) 
 
                 C             O    
                [ 1]        [ 2]
  C    [ 1]     0.00000
  O    [ 2]     1.70690     0.00000
 rotcon2
   Rotational constants (in cm-1): 
          0.8036329978             0.0000000000
   Rotational constants (in MHz): 
      24092.3145485746             0.0000000000
  ECPDATA file not present.   Using default ECPDATA. 
  @GTFLGS-I, Hessian will be transformed to curvilinear coordinates.
  There are  218 basis functions.
 @CHECKOUT-I, Total execution time (CPU/WALL):        0.17/       0.25 seconds.
--executable xjoda finished with status     0 in        0.29 seconds (walltime).
 --invoking executable--
/nfs/workspaces/public/cfour_mpi/bin/xvmol
 SERIAL VERSION OF MOLECULE STARTED
********************************************************************************
                    INPUT FROM MOL FILE
********************************************************************************
INTGRL        1    0    1    0    0    0    0    0    0                         
         *** CFOUR Program System (Release V0.1) ***                            
Carbon Monoxide DBOC calculation                                                
    2    2 X  Y       0.10E-08              0    0                              
   9999.00      3.00                                                            
          6.00000000    1    5    1    1    1    1    1                         
C #1  -0.000000000000000   0.000000000000000   1.935304494630955                
   16    9                                                                      
   33980.0000000000       9.100000000000000E-005 -1.900000000000000E-005        
  0.000000000000000E+000  0.000000000000000E+000  0.000000000000000E+000        
  0.000000000000000E+000  0.000000000000000E+000  0.000000000000000E+000        
  0.000000000000000E+000                                                        
   5089.00000000000       7.040000000000000E-004 -1.510000000000000E-004        
  0.000000000000000E+000  0.000000000000000E+000  0.000000000000000E+000        
  0.000000000000000E+000  0.000000000000000E+000  0.000000000000000E+000        
  0.000000000000000E+000                                                        
   1157.00000000000       3.693000000000000E-003 -7.850000000000000E-004        
  0.000000000000000E+000  0.000000000000000E+000  0.000000000000000E+000        
  0.000000000000000E+000  0.000000000000000E+000  0.000000000000000E+000        
  0.000000000000000E+000                                                        
   326.600000000000       1.536000000000000E-002 -3.324000000000000E-003        
  0.000000000000000E+000  0.000000000000000E+000  0.000000000000000E+000        
  0.000000000000000E+000  0.000000000000000E+000  0.000000000000000E+000        
  0.000000000000000E+000                                                        
   106.100000000000       5.292900000000000E-002 -1.151200000000000E-002        
  0.000000000000000E+000  0.000000000000000E+000  0.000000000000000E+000        
  0.000000000000000E+000  0.000000000000000E+000  0.000000000000000E+000        
  0.000000000000000E+000                                                        
   38.1100000000000       0.147043000000000      -3.416000000000000E-002        
  0.000000000000000E+000  0.000000000000000E+000  0.000000000000000E+000        
  0.000000000000000E+000  0.000000000000000E+000  0.000000000000000E+000        
  0.000000000000000E+000                                                        
   14.7500000000000       0.305631000000000      -7.717300000000001E-002        
  0.000000000000000E+000  0.000000000000000E+000  0.000000000000000E+000        
  0.000000000000000E+000  0.000000000000000E+000  0.000000000000000E+000        
  0.000000000000000E+000                                                        
   6.03500000000000       0.399345000000000      -0.141493000000000             
  0.000000000000000E+000  0.000000000000000E+000  0.000000000000000E+000        
  0.000000000000000E+000  0.000000000000000E+000  0.000000000000000E+000        
  0.000000000000000E+000                                                        
   2.53000000000000       0.217051000000000      -0.118019000000000             
  0.000000000000000E+000  0.000000000000000E+000  0.000000000000000E+000        
  0.000000000000000E+000  0.000000000000000E+000  0.000000000000000E+000        
  0.000000000000000E+000                                                        
  0.735500000000000       1.589400000000000E-002  0.273806000000000             
   1.00000000000000       0.000000000000000E+000  0.000000000000000E+000        
  0.000000000000000E+000  0.000000000000000E+000  0.000000000000000E+000        
  0.000000000000000E+000                                                        
  0.290500000000000      -3.084000000000000E-003  0.586510000000000             
  0.000000000000000E+000   1.00000000000000       0.000000000000000E+000        
  0.000000000000000E+000  0.000000000000000E+000  0.000000000000000E+000        
  0.000000000000000E+000                                                        
  0.111100000000000       9.779999999999999E-004  0.285430000000000             
  0.000000000000000E+000  0.000000000000000E+000   1.00000000000000             
  0.000000000000000E+000  0.000000000000000E+000  0.000000000000000E+000        
  0.000000000000000E+000                                                        
   7.21600000000000       0.000000000000000E+000  0.000000000000000E+000        
  0.000000000000000E+000  0.000000000000000E+000  0.000000000000000E+000        
   1.00000000000000       0.000000000000000E+000  0.000000000000000E+000        
  0.000000000000000E+000                                                        
   19.5700000000000       0.000000000000000E+000  0.000000000000000E+000        
  0.000000000000000E+000  0.000000000000000E+000  0.000000000000000E+000        
  0.000000000000000E+000   1.00000000000000       0.000000000000000E+000        
  0.000000000000000E+000                                                        
   53.0730000000000       0.000000000000000E+000  0.000000000000000E+000        
  0.000000000000000E+000  0.000000000000000E+000  0.000000000000000E+000        
  0.000000000000000E+000  0.000000000000000E+000   1.00000000000000             
  0.000000000000000E+000                                                        
  4.145000000000000E-002  0.000000000000000E+000  0.000000000000000E+000        
  0.000000000000000E+000  0.000000000000000E+000  0.000000000000000E+000        
  0.000000000000000E+000  0.000000000000000E+000  0.000000000000000E+000        
   1.00000000000000                                                             
   10    8                                                                      
   34.5100000000000       5.378000000000000E-003  0.000000000000000E+000        
  0.000000000000000E+000  0.000000000000000E+000  0.000000000000000E+000        
  0.000000000000000E+000  0.000000000000000E+000  0.000000000000000E+000        
   7.91500000000000       3.613200000000000E-002  0.000000000000000E+000        
  0.000000000000000E+000  0.000000000000000E+000  0.000000000000000E+000        
  0.000000000000000E+000  0.000000000000000E+000  0.000000000000000E+000        
   2.36800000000000       0.142493000000000       0.000000000000000E+000        
  0.000000000000000E+000  0.000000000000000E+000  0.000000000000000E+000        
  0.000000000000000E+000  0.000000000000000E+000  0.000000000000000E+000        
  0.813200000000000       0.342150000000000        1.00000000000000             
  0.000000000000000E+000  0.000000000000000E+000  0.000000000000000E+000        
  0.000000000000000E+000  0.000000000000000E+000  0.000000000000000E+000        
  0.289000000000000       0.463864000000000       0.000000000000000E+000        
   1.00000000000000       0.000000000000000E+000  0.000000000000000E+000        
  0.000000000000000E+000  0.000000000000000E+000  0.000000000000000E+000        
  0.100700000000000       0.250028000000000       0.000000000000000E+000        
  0.000000000000000E+000   1.00000000000000       0.000000000000000E+000        
  0.000000000000000E+000  0.000000000000000E+000  0.000000000000000E+000        
   8.18200000000000       0.000000000000000E+000  0.000000000000000E+000        
  0.000000000000000E+000  0.000000000000000E+000   1.00000000000000             
  0.000000000000000E+000  0.000000000000000E+000  0.000000000000000E+000        
   24.1860000000000       0.000000000000000E+000  0.000000000000000E+000        
  0.000000000000000E+000  0.000000000000000E+000  0.000000000000000E+000        
   1.00000000000000       0.000000000000000E+000  0.000000000000000E+000        
   71.4940000000000       0.000000000000000E+000  0.000000000000000E+000        
  0.000000000000000E+000  0.000000000000000E+000  0.000000000000000E+000        
  0.000000000000000E+000   1.00000000000000       0.000000000000000E+000        
  3.218000000000000E-002  0.000000000000000E+000  0.000000000000000E+000        
  0.000000000000000E+000  0.000000000000000E+000  0.000000000000000E+000        
  0.000000000000000E+000  0.000000000000000E+000   1.00000000000000             
    6    6                                                                      
   1.84800000000000        1.00000000000000       0.000000000000000E+000        
  0.000000000000000E+000  0.000000000000000E+000  0.000000000000000E+000        
  0.000000000000000E+000                                                        
  0.649000000000000       0.000000000000000E+000   1.00000000000000             
  0.000000000000000E+000  0.000000000000000E+000  0.000000000000000E+000        
  0.000000000000000E+000                                                        
  0.228000000000000       0.000000000000000E+000  0.000000000000000E+000        
   1.00000000000000       0.000000000000000E+000  0.000000000000000E+000        
  0.000000000000000E+000                                                        
   8.65600000000000       0.000000000000000E+000  0.000000000000000E+000        
  0.000000000000000E+000   1.00000000000000       0.000000000000000E+000        
  0.000000000000000E+000                                                        
   33.2130000000000       0.000000000000000E+000  0.000000000000000E+000        
  0.000000000000000E+000  0.000000000000000E+000   1.00000000000000             
  0.000000000000000E+000                                                        
  7.660000000000000E-002  0.000000000000000E+000  0.000000000000000E+000        
  0.000000000000000E+000  0.000000000000000E+000  0.000000000000000E+000        
   1.00000000000000                                                             
    4    4                                                                      
   1.41900000000000        1.00000000000000       0.000000000000000E+000        
  0.000000000000000E+000  0.000000000000000E+000                                
  0.485000000000000       0.000000000000000E+000   1.00000000000000             
  0.000000000000000E+000  0.000000000000000E+000                                
   24.6940000000000       0.000000000000000E+000  0.000000000000000E+000        
   1.00000000000000       0.000000000000000E+000                                
  0.187000000000000       0.000000000000000E+000  0.000000000000000E+000        
  0.000000000000000E+000   1.00000000000000                                     
    2    2                                                                      
   1.01100000000000        1.00000000000000       0.000000000000000E+000        
  0.424000000000000       0.000000000000000E+000   1.00000000000000             
          8.00000000    1    5    1    1    1    1    1                         
O #2   0.000000000000000   0.000000000000000  -1.290263187198319                
   16    9                                                                      
   61420.0000000000       9.000000000000001E-005 -2.000000000000000E-005        
  0.000000000000000E+000  0.000000000000000E+000  0.000000000000000E+000        
  0.000000000000000E+000  0.000000000000000E+000  0.000000000000000E+000        
  0.000000000000000E+000                                                        
   9199.00000000000       6.980000000000001E-004 -1.590000000000000E-004        
  0.000000000000000E+000  0.000000000000000E+000  0.000000000000000E+000        
  0.000000000000000E+000  0.000000000000000E+000  0.000000000000000E+000        
  0.000000000000000E+000                                                        
   2091.00000000000       3.664000000000000E-003 -8.290000000000000E-004        
  0.000000000000000E+000  0.000000000000000E+000  0.000000000000000E+000        
  0.000000000000000E+000  0.000000000000000E+000  0.000000000000000E+000        
  0.000000000000000E+000                                                        
   590.900000000000       1.521800000000000E-002 -3.508000000000000E-003        
  0.000000000000000E+000  0.000000000000000E+000  0.000000000000000E+000        
  0.000000000000000E+000  0.000000000000000E+000  0.000000000000000E+000        
  0.000000000000000E+000                                                        
   192.300000000000       5.242300000000000E-002 -1.215600000000000E-002        
  0.000000000000000E+000  0.000000000000000E+000  0.000000000000000E+000        
  0.000000000000000E+000  0.000000000000000E+000  0.000000000000000E+000        
  0.000000000000000E+000                                                        
   69.3200000000000       0.145921000000000      -3.626100000000000E-002        
  0.000000000000000E+000  0.000000000000000E+000  0.000000000000000E+000        
  0.000000000000000E+000  0.000000000000000E+000  0.000000000000000E+000        
  0.000000000000000E+000                                                        
   26.9700000000000       0.305258000000000      -8.299200000000000E-002        
  0.000000000000000E+000  0.000000000000000E+000  0.000000000000000E+000        
  0.000000000000000E+000  0.000000000000000E+000  0.000000000000000E+000        
  0.000000000000000E+000                                                        
   11.1000000000000       0.398508000000000      -0.152090000000000             
  0.000000000000000E+000  0.000000000000000E+000  0.000000000000000E+000        
  0.000000000000000E+000  0.000000000000000E+000  0.000000000000000E+000        
  0.000000000000000E+000                                                        
   4.68200000000000       0.216980000000000      -0.115331000000000             
  0.000000000000000E+000  0.000000000000000E+000  0.000000000000000E+000        
  0.000000000000000E+000  0.000000000000000E+000  0.000000000000000E+000        
  0.000000000000000E+000                                                        
   1.42800000000000       1.759400000000000E-002  0.288979000000000             
   1.00000000000000       0.000000000000000E+000  0.000000000000000E+000        
  0.000000000000000E+000  0.000000000000000E+000  0.000000000000000E+000        
  0.000000000000000E+000                                                        
  0.554700000000000      -2.502000000000000E-003  0.586128000000000             
  0.000000000000000E+000   1.00000000000000       0.000000000000000E+000        
  0.000000000000000E+000  0.000000000000000E+000  0.000000000000000E+000        
  0.000000000000000E+000                                                        
  0.206700000000000       9.540000000000000E-004  0.277624000000000             
  0.000000000000000E+000  0.000000000000000E+000   1.00000000000000             
  0.000000000000000E+000  0.000000000000000E+000  0.000000000000000E+000        
  0.000000000000000E+000                                                        
   12.9740000000000       0.000000000000000E+000  0.000000000000000E+000        
  0.000000000000000E+000  0.000000000000000E+000  0.000000000000000E+000        
   1.00000000000000       0.000000000000000E+000  0.000000000000000E+000        
  0.000000000000000E+000                                                        
   34.9000000000000       0.000000000000000E+000  0.000000000000000E+000        
  0.000000000000000E+000  0.000000000000000E+000  0.000000000000000E+000        
  0.000000000000000E+000   1.00000000000000       0.000000000000000E+000        
  0.000000000000000E+000                                                        
   93.8810000000000       0.000000000000000E+000  0.000000000000000E+000        
  0.000000000000000E+000  0.000000000000000E+000  0.000000000000000E+000        
  0.000000000000000E+000  0.000000000000000E+000   1.00000000000000             
  0.000000000000000E+000                                                        
  6.959000000000000E-002  0.000000000000000E+000  0.000000000000000E+000        
  0.000000000000000E+000  0.000000000000000E+000  0.000000000000000E+000        
  0.000000000000000E+000  0.000000000000000E+000  0.000000000000000E+000        
   1.00000000000000                                                             
   10    8                                                                      
   63.4200000000000       6.044000000000000E-003  0.000000000000000E+000        
  0.000000000000000E+000  0.000000000000000E+000  0.000000000000000E+000        
  0.000000000000000E+000  0.000000000000000E+000  0.000000000000000E+000        
   14.6600000000000       4.179900000000000E-002  0.000000000000000E+000        
  0.000000000000000E+000  0.000000000000000E+000  0.000000000000000E+000        
  0.000000000000000E+000  0.000000000000000E+000  0.000000000000000E+000        
   4.45900000000000       0.161143000000000       0.000000000000000E+000        
  0.000000000000000E+000  0.000000000000000E+000  0.000000000000000E+000        
  0.000000000000000E+000  0.000000000000000E+000  0.000000000000000E+000        
   1.53100000000000       0.356731000000000        1.00000000000000             
  0.000000000000000E+000  0.000000000000000E+000  0.000000000000000E+000        
  0.000000000000000E+000  0.000000000000000E+000  0.000000000000000E+000        
  0.530200000000000       0.448309000000000       0.000000000000000E+000        
   1.00000000000000       0.000000000000000E+000  0.000000000000000E+000        
  0.000000000000000E+000  0.000000000000000E+000  0.000000000000000E+000        
  0.175000000000000       0.244940000000000       0.000000000000000E+000        
  0.000000000000000E+000   1.00000000000000       0.000000000000000E+000        
  0.000000000000000E+000  0.000000000000000E+000  0.000000000000000E+000        
   14.4750000000000       0.000000000000000E+000  0.000000000000000E+000        
  0.000000000000000E+000  0.000000000000000E+000   1.00000000000000             
  0.000000000000000E+000  0.000000000000000E+000  0.000000000000000E+000        
   42.7300000000000       0.000000000000000E+000  0.000000000000000E+000        
  0.000000000000000E+000  0.000000000000000E+000  0.000000000000000E+000        
   1.00000000000000       0.000000000000000E+000  0.000000000000000E+000        
   126.140000000000       0.000000000000000E+000  0.000000000000000E+000        
  0.000000000000000E+000  0.000000000000000E+000  0.000000000000000E+000        
  0.000000000000000E+000   1.00000000000000       0.000000000000000E+000        
  5.348000000000000E-002  0.000000000000000E+000  0.000000000000000E+000        
  0.000000000000000E+000  0.000000000000000E+000  0.000000000000000E+000        
  0.000000000000000E+000  0.000000000000000E+000   1.00000000000000             
    6    6                                                                      
   3.77500000000000        1.00000000000000       0.000000000000000E+000        
  0.000000000000000E+000  0.000000000000000E+000  0.000000000000000E+000        
  0.000000000000000E+000                                                        
   1.30000000000000       0.000000000000000E+000   1.00000000000000             
  0.000000000000000E+000  0.000000000000000E+000  0.000000000000000E+000        
  0.000000000000000E+000                                                        
  0.444000000000000       0.000000000000000E+000  0.000000000000000E+000        
   1.00000000000000       0.000000000000000E+000  0.000000000000000E+000        
  0.000000000000000E+000                                                        
   14.9270000000000       0.000000000000000E+000  0.000000000000000E+000        
  0.000000000000000E+000   1.00000000000000       0.000000000000000E+000        
  0.000000000000000E+000                                                        
   57.5440000000000       0.000000000000000E+000  0.000000000000000E+000        
  0.000000000000000E+000  0.000000000000000E+000   1.00000000000000             
  0.000000000000000E+000                                                        
  0.154000000000000       0.000000000000000E+000  0.000000000000000E+000        
  0.000000000000000E+000  0.000000000000000E+000  0.000000000000000E+000        
   1.00000000000000                                                             
    4    4                                                                      
   2.66600000000000        1.00000000000000       0.000000000000000E+000        
  0.000000000000000E+000  0.000000000000000E+000                                
  0.859000000000000       0.000000000000000E+000   1.00000000000000             
  0.000000000000000E+000  0.000000000000000E+000                                
   26.4830000000000       0.000000000000000E+000  0.000000000000000E+000        
   1.00000000000000       0.000000000000000E+000                                
  0.324000000000000       0.000000000000000E+000  0.000000000000000E+000        
  0.000000000000000E+000   1.00000000000000                                     
    2    2                                                                      
   1.84600000000000        1.00000000000000       0.000000000000000E+000        
  0.714000000000000       0.000000000000000E+000   1.00000000000000             
FINISH                                                                          
 
********************************************************************************
 ONE- AND TWO-ELECTRON INTEGRALS OVER SYMMETRY-ADAPTED AOS ARE CALCULATED.

  SPHERICAL HARMONICS ARE USED.
  
  INTEGRALS LESS THAN  0.10E-13 ARE NEGLECTED.

  NUCLEAR REPULSION ENERGY :   14.8811014788 A.U.
  @MOLECU-I, ONE ELECTRON INTEGRALS (CPU/WALL):        0.06/       0.06 SECONDS.
  @TWOEL-I,    4389398 INTEGRALS OF SYMMETRY TYPE  I I I I
  @TWOEL-I,   18944843 INTEGRALS OF SYMMETRY TYPE  I J I J
  @TWOEL-I,    9975508 INTEGRALS OF SYMMETRY TYPE  I I J J
  @TWOEL-I,   13988699 INTEGRALS OF SYMMETRY TYPE  I J K L
  @TWOEL-I, TOTAL NUMBER OF 2-E INTEGRALS   47298448.
  @MOLECU-I, TWO ELECTRON INTEGRALS (CPU/WALL):      223.72/      30.05 SECONDS.
 @CHECKOUT-I, Total execution time (CPU/WALL):      223.80/      30.14 seconds.

Running with 14 threads/proc

--executable xvmol finished with status     0 in       30.17 seconds (walltime).
 --invoking executable--
/nfs/workspaces/public/cfour_mpi/bin/xvmol2ja
 @GETMEM-I,  Allocated    3814 MB of main memory.
 @CHECKOUT-I, Total execution time (CPU/WALL):        0.18/       0.04 seconds.
--executable xvmol2ja finished with status     0 in        0.08 seconds (walltime).
 --invoking executable--
/nfs/workspaces/public/cfour_mpi/bin/xvprop
 @GETMEM-I,  Allocated    3814 MB of main memory.
   Property integrals will be calculated.
    --------------------------------------------------------------
                                   Property evaluated at 
    Property type                X             Y             Z
    --------------------------------------------------------------
    Dipole moment               ----          ----          ----  
    Quadrupole moment           ----          ----          ----  
    Octopole moment             ----          ----          ----  
    Relativisitic corr.         ----          ----          ----  
    Second moment            0.0000000     0.0000000     0.0000000
    Electron density         0.0000000     0.0000000     1.9353045
    Electron density         0.0000000     0.0000000    -1.2902632
    Field gradient           0.0000000     0.0000000     1.9353045
    Field gradient           0.0000000     0.0000000    -1.2902632
    Potential                0.0000000     0.0000000     1.9353045
    Potential                0.0000000     0.0000000    -1.2902632
    --------------------------------------------------------------
 @CHECKOUT-I, Total execution time (CPU/WALL):        1.35/       1.36 seconds.
--executable xvprop finished with status     0 in        1.39 seconds (walltime).
 --invoking executable--
/nfs/workspaces/public/cfour_mpi/bin/xvscf
  There are  218 functions in the AO basis.

  There are 4 irreducible representations.

       Irrep        # of functions
         1                 86
         2                 52
         3                 52
         4                 28


  Parameters for SCF calculation: 
        SCF reference function:  RHF  
  Maximum number of iterations:  150
     Full symmetry point group: CXv 
     Computational point group: C2v 
        Initial density matrix: MOREAD                 
     SCF convergence tolerance: 10**(-10)
  DIIS convergence acceleration:  ON
          Latest start for DIIS:   8
                     DIIS order:   6

  Memory information:    2523578 words required.
  Fock matrices are constructed from AO integral file.
 @GETMEM-I,  Allocated      19 MB of main memory.
  Initialization and symmetry analysis required      0.002 seconds.

  Adding electric field perturbation to one-electron Hamiltonian.
  Field direction     : Z
  Field strength      :  0.0002000 a.u.

  @INITGES-I, Occupancies from core Hamiltonian:

          Alpha population by irrep:   5    1    1    0
           Beta population by irrep:   5    1    1    0


 total no. of electrons in initial guess :  0.000000000000000E+000
  --------------------------------------------------------------------
  Iteration         Total Energy            Largest Density Difference
  --------------------------------------------------------------------
       0            14.880843534494492              0.0000000000D+00
   current occupation vector 
     5  1  1  0
     5  1  1  0
       1           -93.708649985578290              0.1756180197D+02
   current occupation vector 
     5  1  1  0
     5  1  1  0
       2           -97.729625682552197              0.1756179366D+02
   current occupation vector 
     5  1  1  0
     5  1  1  0
       3           -99.937426635837554              0.6933748549D+01
   current occupation vector 
     5  1  1  0
     5  1  1  0
       4           -94.507124798562103              0.6931655478D+01
   current occupation vector 
     5  1  1  0
     5  1  1  0
       5           -99.939412117058552              0.7051887392D+01
   current occupation vector 
     5  1  1  0
     5  1  1  0
       6           -94.395371032101181              0.7051995094D+01
   current occupation vector 
     5  1  1  0
     5  1  1  0
       7           -99.935805349602006              0.7057501181D+01
   current occupation vector 
     5  1  1  0
     5  1  1  0
       8           -94.392553578821691              0.7057506483D+01
   current occupation vector 
     5  1  1  0
     5  1  1  0
       9          -107.146348119936363              0.6045524612D+01
   current occupation vector 
     5  1  1  0
     5  1  1  0
      10          -110.573533467654116              0.1314877046D+01
   current occupation vector 
     5  1  1  0
     5  1  1  0
      11          -112.285530667182542              0.1014557446D+01
   current occupation vector 
     5  1  1  0
     5  1  1  0
      12          -112.417803561399765              0.5923157726D+00
   current occupation vector 
     5  1  1  0
     5  1  1  0
      13          -112.460301415244416              0.1399177864D+00
   current occupation vector 
     5  1  1  0
     5  1  1  0
      14          -112.472291959250569              0.1076982042D+00
   current occupation vector 
     5  1  1  0
     5  1  1  0
      15          -112.473317492061213              0.3950304710D-01
   current occupation vector 
     5  1  1  0
     5  1  1  0
      16          -112.474400278013704              0.6451329603D-01
   current occupation vector 
     5  1  1  0
     5  1  1  0
      17          -112.474999709748872              0.5766518224D-01
   current occupation vector 
     5  1  1  0
     5  1  1  0
      18          -112.475134425649614              0.3633609154D-01
   current occupation vector 
     5  1  1  0
     5  1  1  0
      19          -112.475135722930418              0.2586065044D-02
   current occupation vector 
     5  1  1  0
     5  1  1  0
      20          -112.475135756567980              0.6492595315D-03
   current occupation vector 
     5  1  1  0
     5  1  1  0
      21          -112.475135757490150              0.1261515405D-03
   current occupation vector 
     5  1  1  0
     5  1  1  0
      22          -112.475135757738713              0.5895033990D-04
   current occupation vector 
     5  1  1  0
     5  1  1  0
      23          -112.475135757739196              0.8858608617D-06
   current occupation vector 
     5  1  1  0
     5  1  1  0
      24          -112.475135757738670              0.4286494709D-06
   current occupation vector 
     5  1  1  0
     5  1  1  0
      25          -112.475135757737874              0.4581989743D-07
   current occupation vector 
     5  1  1  0
     5  1  1  0
      26          -112.475135757738741              0.3995298914D-07
   current occupation vector 
     5  1  1  0
     5  1  1  0
      27          -112.475135757738329              0.2019020573D-07
   current occupation vector 
     5  1  1  0
     5  1  1  0
      28          -112.475135757739253              0.9598724704D-08
   current occupation vector 
     5  1  1  0
     5  1  1  0
      29          -112.475135757738556              0.2929481102D-09
   current occupation vector 
     5  1  1  0
     5  1  1  0
      30          -112.475135757738329              0.6582228096D-09
   current occupation vector 
     5  1  1  0
     5  1  1  0

  SCF has converged.

 Density matrix saved to file den.dat
 total electron number:   14.0000000000000     
     E(SCF)=      -112.475135757739338              0.9801670586D-10

  Eigenvector printing suppressed.

 @PUTMOS-I, Writing converged MOs to NEWMOS. 
 @PUTMOS-I, Symmetry   1 Full Blocks 21 Partial Blocksize   2
 @PUTMOS-I, Symmetry   2 Full Blocks 13 Partial Blocksize   0
 @PUTMOS-I, Symmetry   3 Full Blocks 13 Partial Blocksize   0
 @PUTMOS-I, Symmetry   4 Full Blocks  7 Partial Blocksize   0
 @PUTFOCK-I, Writing converged Fock matrix to NEWFOCK. 
 @PUTFOCK-I, Symmetry   1 Full Blocks 21 Partial Blocksize   2
 @PUTFOCK-I, Symmetry   2 Full Blocks 13 Partial Blocksize   0
 @PUTFOCK-I, Symmetry   3 Full Blocks 13 Partial Blocksize   0
 @PUTFOCK-I, Symmetry   4 Full Blocks  7 Partial Blocksize   0


 
  ORBITAL EIGENVALUES (ALPHA)  (1H = 27.2113834 eV)

       MO #        E(hartree)               E(eV)           FULLSYM    COMPSYM
       ----   --------------------   --------------------   -------   ---------
    1     1         -20.6324195393        -561.4366785543     SG+        A1 (1)
    2     2         -11.5355976278        -313.8995697983     SG+        A1 (1)
    3     3          -1.2427890280         -33.8180087252     SG+        A1 (1)
    4     4          -0.8120610061         -22.0973033799     SG+        A1 (1)
    5     5          -0.5048292376         -13.7371019363     SG+        A1 (1)
    6    87          -0.4821730756         -13.1205964262      PI        B1 (2)
    7   139          -0.4821730756         -13.1205964262      PI        B2 (3)
  +++++++++++++++++++++++++++++++++++++++++++++++++++++++++++++++++++++++++++++
    8   140          -0.0219737456          -0.5979360172      PI        B2 (3)
    9    88          -0.0219737456          -0.5979360172      PI        B1 (2)
   10     6           0.0583188037           1.5869353270     SG+        A1 (1)
   11     7           0.0686928350           1.8692270699     SG+        A1 (1)
   12   141           0.0812026701           2.2096369882      PI        B2 (3)
   13    89           0.0812026701           2.2096369882      PI        B1 (2)
   14     8           0.1549109826           4.2153421402     SG+        A1 (1)
   15     9           0.1709439099           4.6516202713     SG+        A1 (1)
   16    90           0.1825501911           4.9674432388      PI        B1 (2)
   17   142           0.1825501911           4.9674432388      PI        B2 (3)
   18    10           0.2202595635           5.9935674310      DE        A1 (1)
   19   191           0.2202595635           5.9935674310      DE        A2 (4)
   20    91           0.2808696507           7.6428517499      PI        B1 (2)
   21   143           0.2808696507           7.6428517499      PI        B2 (3)
   22    11           0.2911802346           7.9234170024     SG+        A1 (1)
   23    12           0.3044423725           8.2842981212     SG+        A1 (1)
   24    92           0.4088936303          11.1265613432      PI        B1 (2)
   25   144           0.4088936303          11.1265613432      PI        B2 (3)
   26    13           0.4104674808          11.1693879946     SG+        A1 (1)
   27    14           0.5152952790          14.0218973998     SG+        A1 (1)
   28    15           0.5506430579          14.9837593642      DE        A1 (1)
   29   192           0.5506430579          14.9837593642      DE        A2 (4)
   30    93           0.6234683687          16.9654368193      PI        B1 (2)
   31   145           0.6234683687          16.9654368193      PI        B2 (3)
   32    16           0.6983213190          19.0022891467     SG+        A1 (1)
   33    94           0.7263710063          19.7655599437      PH        B1 (2)
   34   146           0.7263710063          19.7655599437      PH        B2 (3)
   35    17           0.7324510979          19.9310076478      DE        A1 (1)
   36   193           0.7324510979          19.9310076478      DE        A2 (4)
   37    95           0.7691632866          20.9299970895      PI        B1 (2)
   38   147           0.7691632866          20.9299970895      PI        B2 (3)
   39    18           0.8092728427          22.0214335984     SG+        A1 (1)
   40    19           0.8496473604          23.1200800795      DE        A1 (1)
   41   194           0.8496473604          23.1200800795      DE        A2 (4)
   42    96           0.8674452592          23.6043855256      PI        B1 (2)
   43   148           0.8674452592          23.6043855256      PI        B2 (3)
   44    20           0.9025170187          24.5587366216     SG+        A1 (1)
   45    97           1.0532892898          28.6614586963      PI        B1 (2)
   46   149           1.0532892898          28.6614586963      PI        B2 (3)
   47    21           1.1471169900          31.2146402206     SG+        A1 (1)
   48    22           1.3305021168          36.2048032144     SG+        A1 (1)
   49   150           1.4187126898          38.6051349364      PH        B2 (3)
   50    98           1.4187126898          38.6051349364      PH        B1 (2)
   51   151           1.4579570576          39.6730284764      PI        B2 (3)
   52    99           1.4579570576          39.6730284764      PI        B1 (2)
   53    23           1.5774243430          42.9238985807     SG+        A1 (1)
   54    24           1.5877538299          43.2049782110      DE        A1 (1)
   55   195           1.5877538299          43.2049782110      DE        A2 (4)
   56   100           1.6411771902          44.6587017500      PI        B1 (2)
   57   152           1.6411771902          44.6587017500      PI        B2 (3)
   58    25           1.6603686118          45.1809268811      DE        A1 (1)
   59   196           1.6603686118          45.1809268811      DE        A2 (4)
   60    26           1.8833852019          51.2495168187     SG+        A1 (1)
   61    27           1.9219731266          52.2995476337     SG+        A1 (1)
   62   101           2.0282954772          55.1927258796      PI        B1 (2)
   63   153           2.0282954772          55.1927258797      PI        B2 (3)
   64   197           2.0578503343          55.9969544257      PI        A2 (4)
   65    28           2.0578503343          55.9969544257      PI        A1 (1)
   66    29           2.1149580773          57.5509351172      DE        A1 (1)
   67   198           2.1149580773          57.5509351172      DE        A2 (4)
   68   154           2.1720710074          59.1050569543      PH        B2 (3)
   69   102           2.1720710074          59.1050569543      PH        B1 (2)
   70   155           2.1976952836          59.8023289585      PH        B2 (3)
   71   103           2.1976952836          59.8023289585      PH        B1 (2)
   72   104           2.2031559017          59.9509199314      PI        B1 (2)
   73   156           2.2031559017          59.9509199314      PI        B2 (3)
   74    30           2.2180492344          60.3561881164     SG+        A1 (1)
   75    31           2.2691086511          61.7455854812      DE        A1 (1)
   76   199           2.2691086511          61.7455854812      DE        A2 (4)
   77    32           2.3596444249          64.2091891325     SG+        A1 (1)
   78   105           2.4722784824          67.2741176554      PI        B1 (2)
   79   157           2.4722784824          67.2741176554      PI        B2 (3)
   80    33           2.5635368116          69.7573830413      DE        A1 (1)
   81   200           2.5635368116          69.7573830413      DE        A2 (4)
   82   106           2.6317812338          71.6144081781      PI        B1 (2)
   83   158           2.6317812338          71.6144081781      PI        B2 (3)
   84    34           2.6578493199          72.3237568623     SG+        A1 (1)
   85    35           2.8040594697          76.3023373055     SG+        A1 (1)
   86   159           3.2744926339          89.1034745009      PI        B2 (3)
   87   107           3.2744926339          89.1034745009      PI        B1 (2)
   88   201           3.7198403877         101.2220029772      PI        A2 (4)
   89    36           3.7198403877         101.2220029772      PI        A1 (1)
   90    37           3.8130404002         103.7581042491     SG+        A1 (1)
   91   108           3.8668212924         105.2215567275      PH        B1 (2)
   92   160           3.8668212924         105.2215567275      PH        B2 (3)
   93    38           4.0612028465         110.5109477200     SG+        A1 (1)
   94    39           4.1389915737         112.6276866012      DE        A1 (1)
   95   202           4.1389915737         112.6276866012      DE        A2 (4)
   96   161           4.1429068738         112.7342273338      PI        B2 (3)
   97   109           4.1429068738         112.7342273338      PI        B1 (2)
   98   110           4.1502150122         112.9330918891      PH        B1 (2)
   99   162           4.1502150122         112.9330918891      PH        B2 (3)
  100    40           4.3102748391         117.2885412051      DE        A1 (1)
  101   203           4.3102748391         117.2885412051      DE        A2 (4)
  102    41           4.3213509607         117.5899377966     SG+        A1 (1)
  103   111           4.4736569421         121.7343942519      PI        B1 (2)
  104   163           4.4736569421         121.7343942519      PI        B2 (3)
  105   204           4.5798525773         124.6241243956      DE        A2 (4)
  106    42           4.5798525773         124.6241243956      DE        A1 (1)
  107    43           4.8782313128         132.7434225662     SG+        A1 (1)
  108   164           5.0312224168         136.9065221534      PI        B2 (3)
  109   112           5.0312224168         136.9065221534      PI        B1 (2)
  110    44           5.0711331125         137.9925473965     SG+        A1 (1)
  111   165           5.3558109956         145.7390264187      PI        B2 (3)
  112   113           5.3558109956         145.7390264188      PI        B1 (2)
  113   205           5.8094076624         158.0820192274      PI        A2 (4)
  114    45           5.8094076624         158.0820192274      PI        A1 (1)
  115   166           5.8802247027         160.0090488643      PH        B2 (3)
  116   114           5.8802247027         160.0090488643      PH        B1 (2)
  117    46           5.9516502599         161.9526370852     SG+        A1 (1)
  118    47           6.0385991840         164.3186375950      DE        A1 (1)
  119   206           6.0385991840         164.3186375951      DE        A2 (4)
  120   167           6.1003854692         165.9999278888      PI        B2 (3)
  121   115           6.1003854692         165.9999278888      PI        B1 (2)
  122    48           6.1398234823         167.0730907847     SG+        A1 (1)
  123    49           6.2463629175         169.9721762037      DE        A1 (1)
  124   207           6.2463629175         169.9721762037      DE        A2 (4)
  125   168           6.3335648904         172.3450625215      PH        B2 (3)
  126   116           6.3335648904         172.3450625215      PH        B1 (2)
  127    50           6.4630882344         175.8695718933      DE        A1 (1)
  128   208           6.4630882344         175.8695718933      DE        A2 (4)
  129   169           6.6955069833         182.1940075789      PI        B2 (3)
  130   117           6.6955069833         182.1940075789      PI        B1 (2)
  131   170           7.0027472503         190.5544402822      PI        B2 (3)
  132   118           7.0027472503         190.5544402822      PI        B1 (2)
  133    51           7.0529822932         191.9214052939     SG+        A1 (1)
  134    52           7.4665944230         203.1763635352     SG+        A1 (1)
  135    53           9.3288409437         253.8506675972     SG+        A1 (1)
  136   171           9.6060301162         261.3933684439      PI        B2 (3)
  137   119           9.6060301162         261.3933684440      PI        B1 (2)
  138    54          10.6584215622         290.0303955691     SG+        A1 (1)
  139   209          10.6782351421         290.5695504859      PI        A2 (4)
  140    55          10.6782351421         290.5695504859      PI        A1 (1)
  141   172          10.7261532655         291.8734689148      PH        B2 (3)
  142   120          10.7261532655         291.8734689148      PH        B1 (2)
  143    56          10.9241499233         297.2612318808      DE        A1 (1)
  144   210          10.9241499233         297.2612318808      DE        A2 (4)
  145   121          10.9957564995         299.2097458819      PI        B1 (2)
  146   173          10.9957564995         299.2097458819      PI        B2 (3)
  147    57          11.1131108628         302.4031204556     SG+        A1 (1)
  148   122          11.9131578931         324.1735069332      PH        B1 (2)
  149   174          11.9131578931         324.1735069332      PH        B2 (3)
  150   211          11.9749356836         325.8545660766      DE        A2 (4)
  151    58          11.9749356836         325.8545660772      DE        A1 (1)
  152   175          12.1979529679         331.9231749057      PI        B2 (3)
  153   123          12.1979529679         331.9231749057      PI        B1 (2)
  154    59          12.4794485586         339.5830593476     SG+        A1 (1)
  155   212          12.7239740605         346.2369365312      DE        A2 (4)
  156    60          12.7239740605         346.2369365312      DE        A1 (1)
  157   176          13.0962548164         356.3672109135      PI        B2 (3)
  158   124          13.0962548164         356.3672109135      PI        B1 (2)
  159    61          13.3287629324         362.6940784025     SG+        A1 (1)
  160    62          17.1979004512         467.9786628533     SG+        A1 (1)
  161   177          18.6630078936         507.8462631906      PI        B2 (3)
  162   125          18.6630078936         507.8462631908      PI        B1 (2)
  163    63          19.3958965974         527.7891786988     SG+        A1 (1)
  164    64          26.2327073192         713.8282564835      DE        A1 (1)
  165   213          26.2327073192         713.8282564835      DE        A2 (4)
  166   178          26.4504712768         719.7539150226      PI        B2 (3)
  167   126          26.4504712768         719.7539150226      PI        B1 (2)
  168    65          26.8671656317         731.0927448755     SG+        A1 (1)
  169   179          33.3392850261         907.2080671262      PI        B2 (3)
  170   127          33.3392850261         907.2080671269      PI        B1 (2)
  171    66          34.1682416932         929.7651248171     SG+        A1 (1)
  172    67          35.4977450737         965.9427510351     SG+        A1 (1)
  173   214          47.0817518511        1281.1596007641      DE        A2 (4)
  174    68          47.0817518511        1281.1596007641      DE        A1 (1)
  175   180          47.2615104542        1286.0510810324      PI        B2 (3)
  176   128          47.2615104542        1286.0510810324      PI        B1 (2)
  177    69          47.4016299068        1289.8639251785     SG+        A1 (1)
  178    70          63.6442949421        1731.8493108935     SG+        A1 (1)
  179   181          66.2582486844        1802.9786083638      PI        B2 (3)
  180   129          66.2582486844        1802.9786083640      PI        B1 (2)
  181    71          66.8067492730        1817.9040681750     SG+        A1 (1)
  182   182          98.4916035739        2680.0927865304      PH        B2 (3)
  183   130          98.4916035739        2680.0927865304      PH        B1 (2)
  184   215          98.5066717953        2680.5028136794      DE        A2 (4)
  185    72          98.5066717953        2680.5028136795      DE        A1 (1)
  186   183          98.5204979410        2680.8790422311      PI        B2 (3)
  187   131          98.5204979410        2680.8790422311      PI        B1 (2)
  188    73          98.5274650049        2681.0686256798     SG+        A1 (1)
  189    74         103.3216880679        2811.5260675509      DE        A1 (1)
  190   216         103.3216880680        2811.5260675532      DE        A2 (4)
  191   132         103.3314831341        2811.7926048523      PH        B1 (2)
  192   184         103.3314831341        2811.7926048523      PH        B2 (3)
  193   133         103.3319467765        2811.8052212025      PI        B1 (2)
  194   185         103.3319467765        2811.8052212025      PI        B2 (3)
  195    75         103.3436921351        2812.1248286601     SG+        A1 (1)
  196   217         114.9409436840        3127.7020869436      DE        A2 (4)
  197    76         114.9409436840        3127.7020869436      DE        A1 (1)
  198   186         115.0475764878        3130.6037130517      PI        B2 (3)
  199   134         115.0475764878        3130.6037130517      PI        B1 (2)
  200    77         115.2226952241        3135.3689361235     SG+        A1 (1)
  201   187         116.6601115311        3174.4830223606      PI        B2 (3)
  202   135         116.6601115312        3174.4830223611      PI        B1 (2)
  203    78         117.3563749994        3193.4293145440     SG+        A1 (1)
  204    79         121.7663238033        3313.4301222192     SG+        A1 (1)
  205   218         198.5664445279        5403.2676524240      DE        A2 (4)
  206    80         198.5664445279        5403.2676524241      DE        A1 (1)
  207   136         198.6642732447        5405.9297071452      PI        B1 (2)
  208   188         198.6642732447        5405.9297071452      PI        B2 (3)
  209    81         198.7382423657        5407.9425092565     SG+        A1 (1)
  210    82         216.1771594894        5882.4795691896     SG+        A1 (1)
  211   189         224.7475212594        6115.6909691894      PI        B2 (3)
  212   137         224.7475212594        6115.6909691895      PI        B1 (2)
  213    83         225.1808263254        6127.4817994704     SG+        A1 (1)
  214   190         395.2115672478       10754.2534804934      PI        B2 (3)
  215   138         395.2115672478       10754.2534804939      PI        B1 (2)
  216    84         395.7423723434       10768.6974214630     SG+        A1 (1)
  217    85         508.5218509271       13837.5830528560     SG+        A1 (1)
  218    86         894.9879267054       24353.8596119511     SG+        A1 (1)


  VSCF finished.

 @CHECKOUT-I, Total execution time (CPU/WALL):       51.92/       9.14 seconds.
--executable xvscf finished with status     0 in        9.18 seconds (walltime).
 --invoking executable--
/nfs/workspaces/public/cfour_mpi/bin/xvtran
 @GETMEM-I,  Allocated    3814 MB of main memory.
  Full RHF integral transformation
  Transformation of IIII integrals :
  1 pass through the AO integral file was required.
     4389398 AO integrals were read.
     8558822 MO integrals were written to HF2.
  Transformation of IIJJ integrals :
  1 pass through the AO integral file was required.
     9975508 AO integrals were read.
    14345682 MO integrals were written to HF2.
  Transformation of IJIJ integrals :
  1 pass through the AO integral file was required.
    18944843 AO integrals were read.
    26690202 MO integrals were written to HF2.
  Transformation of IJKL integrals :
  1 pass through the AO integral file was required.
    13988699 AO integrals were read.
    18075543 MO integrals were written to HF2.
  Summary of active molecular orbitals: 
------------------------------------------------------------------------
 
  Index      Eigenvalue    Symmetry    Index      Eigenvalue    Symmetry
------------------------------------------------------------------------
     1       -20.6324195        1       110         4.1429069        2
     2       -11.5355976        1       111         4.1502150        2
     3        -1.2427890        1       112         4.4736569        2
     4        -0.8120610        1       113         5.0312224        2
     5        -0.5048292        1       114         5.3558110        2
     6        -0.4821731        2       115         5.8802247        2
     7        -0.4821731        3       116         6.1003855        2
     8         0.0583188        1       117         6.3335649        2
     9         0.0686928        1       118         6.6955070        2
    10         0.1549110        1       119         7.0027473        2
    11         0.1709439        1       120         9.6060301        2
    12         0.2202596        1       121        10.7261533        2
    13         0.2911802        1       122        10.9957565        2
    14         0.3044424        1       123        11.9131579        2
    15         0.4104675        1       124        12.1979530        2
    16         0.5152953        1       125        13.0962548        2
    17         0.5506431        1       126        18.6630079        2
    18         0.6983213        1       127        26.4504713        2
    19         0.7324511        1       128        33.3392850        2
    20         0.8092728        1       129        47.2615105        2
    21         0.8496474        1       130        66.2582487        2
    22         0.9025170        1       131        98.4916036        2
    23         1.1471170        1       132        98.5204979        2
    24         1.3305021        1       133       103.3314831        2
    25         1.5774243        1       134       103.3319468        2
    26         1.5877538        1       135       115.0475765        2
    27         1.6603686        1       136       116.6601115        2
    28         1.8833852        1       137       198.6642732        2
    29         1.9219731        1       138       224.7475213        2
    30         2.0578503        1       139       395.2115672        2
    31         2.1149581        1       140        -0.0219737        3
    32         2.2180492        1       141         0.0812027        3
    33         2.2691087        1       142         0.1825502        3
    34         2.3596444        1       143         0.2808697        3
    35         2.5635368        1       144         0.4088936        3
    36         2.6578493        1       145         0.6234684        3
    37         2.8040595        1       146         0.7263710        3
    38         3.7198404        1       147         0.7691633        3
    39         3.8130404        1       148         0.8674453        3
    40         4.0612028        1       149         1.0532893        3
    41         4.1389916        1       150         1.4187127        3
    42         4.3102748        1       151         1.4579571        3
    43         4.3213510        1       152         1.6411772        3
    44         4.5798526        1       153         2.0282955        3
    45         4.8782313        1       154         2.1720710        3
    46         5.0711331        1       155         2.1976953        3
    47         5.8094077        1       156         2.2031559        3
    48         5.9516503        1       157         2.4722785        3
    49         6.0385992        1       158         2.6317812        3
    50         6.1398235        1       159         3.2744926        3
    51         6.2463629        1       160         3.8668213        3
    52         6.4630882        1       161         4.1429069        3
    53         7.0529823        1       162         4.1502150        3
    54         7.4665944        1       163         4.4736569        3
    55         9.3288409        1       164         5.0312224        3
    56        10.6584216        1       165         5.3558110        3
    57        10.6782351        1       166         5.8802247        3
    58        10.9241499        1       167         6.1003855        3
    59        11.1131109        1       168         6.3335649        3
    60        11.9749357        1       169         6.6955070        3
    61        12.4794486        1       170         7.0027473        3
    62        12.7239741        1       171         9.6060301        3
    63        13.3287629        1       172        10.7261533        3
    64        17.1979005        1       173        10.9957565        3
    65        19.3958966        1       174        11.9131579        3
    66        26.2327073        1       175        12.1979530        3
    67        26.8671656        1       176        13.0962548        3
    68        34.1682417        1       177        18.6630079        3
    69        35.4977451        1       178        26.4504713        3
    70        47.0817519        1       179        33.3392850        3
    71        47.4016299        1       180        47.2615105        3
    72        63.6442949        1       181        66.2582487        3
    73        66.8067493        1       182        98.4916036        3
    74        98.5066718        1       183        98.5204979        3
    75        98.5274650        1       184       103.3314831        3
    76       103.3216881        1       185       103.3319468        3
    77       103.3436921        1       186       115.0475765        3
    78       114.9409437        1       187       116.6601115        3
    79       115.2226952        1       188       198.6642732        3
    80       117.3563750        1       189       224.7475213        3
    81       121.7663238        1       190       395.2115672        3
    82       198.5664445        1       191         0.2202596        4
    83       198.7382424        1       192         0.5506431        4
    84       216.1771595        1       193         0.7324511        4
    85       225.1808263        1       194         0.8496474        4
    86       395.7423723        1       195         1.5877538        4
    87       508.5218509        1       196         1.6603686        4
    88       894.9879267        1       197         2.0578503        4
    89        -0.0219737        2       198         2.1149581        4
    90         0.0812027        2       199         2.2691087        4
    91         0.1825502        2       200         2.5635368        4
    92         0.2808697        2       201         3.7198404        4
    93         0.4088936        2       202         4.1389916        4
    94         0.6234684        2       203         4.3102748        4
    95         0.7263710        2       204         4.5798526        4
    96         0.7691633        2       205         5.8094077        4
    97         0.8674453        2       206         6.0385992        4
    98         1.0532893        2       207         6.2463629        4
    99         1.4187127        2       208         6.4630882        4
   100         1.4579571        2       209        10.6782351        4
   101         1.6411772        2       210        10.9241499        4
   102         2.0282955        2       211        11.9749357        4
   103         2.1720710        2       212        12.7239741        4
   104         2.1976953        2       213        26.2327073        4
   105         2.2031559        2       214        47.0817519        4
   106         2.4722785        2       215        98.5066718        4
   107         2.6317812        2       216       103.3216881        4
   108         3.2744926        2       217       114.9409437        4
   109         3.8668213        2       218       198.5664445        4
------------------------------------------------------------------------
  -20.6324195393264       -11.5355976278042       -1.24278902796376     
 -0.812061006053677      -0.504829237615838      -0.482173075632617     
 -0.482173075632599       5.831880370305291E-002  6.869283499658013E-002
  0.154910982593073       0.170943909868623       0.220259563538992     
  0.291180234607593       0.304442372495349       0.410467480849548     
  0.515295278951527       0.550643057868651       0.698321318963761     
  0.732451097941840       0.809272842718369       0.849647360432347     
  0.902517018726033        1.14711699004048        1.33050211678626     
   1.57742434295878        1.58775382992822        1.66036861180444     
   1.88338520189537        1.92197312664835        2.05785033427387     
   2.11495807733034        2.21804923436636        2.26910865109604     
   2.35964442486008        2.56353681163215        2.65784931986522     
   2.80405946966549        3.71984038772652        3.81304040018238     
   4.06120284645347        4.13899157369533        4.31027483906366     
   4.32135096066350        4.57985257726954        4.87823131279072     
   5.07113311249205        5.80940766235910        5.95165025991300     
[...]
 Convergence information after    18 iterations: 
 Largest element of residual vector : -0.23795395E-06.
 Largest element of DIIS residual   : -0.23687502E-06.
 Convergence information after    19 iterations: 
 Largest element of residual vector :  0.23087656E-06.
 Largest element of DIIS residual   : -0.10693455E-06.
 Convergence information after    20 iterations: 
 Largest element of residual vector : -0.98088266E-07.
 Largest element of DIIS residual   : -0.54792344E-07.
 Perturbed amplitude equations converged in    20 iterations.
  Dominant contributions to perturbed wavefunction:
    7    0   46    0   0.2273331593 AA  
    7    7  140   22  -0.2220733664 ABAB
    7    7   22  140  -0.2220733664 ABAB
    7    0   22    0   0.2205217208 AA  
    7    0   36    0   0.2173310888 AA  
    7    0   28    0   0.1941285208 AA  
    7    7  140   32  -0.1840185073 ABAB
    7    7   32  140  -0.1840185073 ABAB
    7    7  140   45  -0.1812934102 ABAB
    7    7   45  140  -0.1812934102 ABAB
    7    0   32    0   0.1718719468 AA  
    7    0   25    0  -0.1686219957 AA  
    7    7  140   46  -0.1673877637 ABAB
    7    7   46  140  -0.1673877637 ABAB
    7    0   39    0   0.1654150867 AA  
    7    7  140   28  -0.1591120707 ABAB
    7    7   28  140  -0.1591120707 ABAB
    7    0   56    0   0.1582934745 AA  
    7    0   16    0  -0.1576055816 AA  
    7    0   54    0  -0.1575134975 AA  
  norm of converged amps    1.57852263081766     
 Starting iterative solution of the perturbed Lambda equations.
 The DIIS procedure is used to accelerate convergence.
 Convergence criterion is 10**(-7).
 Maximum number of iterations is 100.
 Convergence information after     1 iterations: 
 Largest element of residual vector :  0.77472414E-01.
 Largest element of DIIS residual   :  0.77472414E-01.
 Convergence information after     2 iterations: 
 Largest element of residual vector : -0.17693382E-01.
 Largest element of DIIS residual   :  0.14526236E-01.
 Convergence information after     3 iterations: 
 Largest element of residual vector :  0.63081210E-02.
 Largest element of DIIS residual   :  0.59143556E-02.
 Convergence information after     4 iterations: 
 Largest element of residual vector :  0.32660652E-02.
 Largest element of DIIS residual   :  0.30797383E-02.
 Convergence information after     5 iterations: 
 Largest element of residual vector :  0.31744674E-02.
 Largest element of DIIS residual   :  0.27709266E-02.
 Convergence information after     6 iterations: 
 Largest element of residual vector :  0.18652784E-02.
 Largest element of DIIS residual   :  0.88608694E-03.
 Convergence information after     7 iterations: 
 Largest element of residual vector :  0.96923281E-03.
 Largest element of DIIS residual   :  0.48188828E-03.
 Convergence information after     8 iterations: 
 Largest element of residual vector :  0.36726654E-03.
 Largest element of DIIS residual   : -0.19790318E-03.
 Convergence information after     9 iterations: 
 Largest element of residual vector :  0.16092876E-03.
 Largest element of DIIS residual   : -0.10324589E-03.
 Convergence information after    10 iterations: 
 Largest element of residual vector :  0.10148928E-03.
 Largest element of DIIS residual   : -0.69764288E-04.
 Convergence information after    11 iterations: 
 Largest element of residual vector : -0.38388514E-04.
 Largest element of DIIS residual   : -0.13488562E-04.
 Convergence information after    12 iterations: 
 Largest element of residual vector :  0.18460965E-04.
 Largest element of DIIS residual   :  0.98849152E-05.
 Convergence information after    13 iterations: 
 Largest element of residual vector :  0.48746890E-05.
 Largest element of DIIS residual   :  0.41468652E-05.
 Convergence information after    14 iterations: 
 Largest element of residual vector :  0.51754733E-05.
 Largest element of DIIS residual   :  0.27427470E-05.
 Convergence information after    15 iterations: 
 Largest element of residual vector :  0.28575227E-05.
 Largest element of DIIS residual   :  0.13701739E-05.
 Convergence information after    16 iterations: 
 Largest element of residual vector :  0.11849935E-05.
 Largest element of DIIS residual   :  0.33338214E-06.
 Convergence information after    17 iterations: 
 Largest element of residual vector :  0.59860840E-06.
 Largest element of DIIS residual   :  0.27341636E-06.
 Convergence information after    18 iterations: 
 Largest element of residual vector :  0.11707070E-06.
 Largest element of DIIS residual   : -0.98252056E-07.
 Perturbed Lambda equations converged in    18 iterations.
  Dominant contributions to perturbed wavefunction:
    7    7  140   22  -0.1629332634 ABAB
    7    7   22  140  -0.1629332634 ABAB
    7    7  140   45  -0.1360204992 ABAB
    7    7   45  140  -0.1360204992 ABAB
    7    7  140   32  -0.1358731948 ABAB
    7    7   32  140  -0.1358731948 ABAB
    7    7  140   46  -0.1171187114 ABAB
    7    7   46  140  -0.1171187114 ABAB
    7    7  140   28  -0.1136706902 ABAB
    7    7   28  140  -0.1136706902 ABAB
    7    7  140   39  -0.1136697714 ABAB
    7    7   39  140  -0.1136697714 ABAB
    7    7  140   56  -0.1091348867 ABAB
    7    7   56  140  -0.1091348867 ABAB
    7    7  140   36  -0.1074327029 ABAB
    7    7   36  140  -0.1074327029 ABAB
    7    6   22   89  -0.1015042217 ABAB
    6    7   89   22  -0.1015042217 ABAB
    7    7  140   16   0.1007798658 ABAB
    7    7   16  140   0.1007798658 ABAB
        The DBOC first-order density matrix is being calculated 
             (Symmetry block 3, perturbation   2)
 term   2.58648816549848     
 final tnorm  0.718657290814011     
  norm contr. I: |<0|L dT/dx|0>|^2   0.000000000000000E+000
  norm contr. II: <0|[nabla(1+L)e-T][nabla e^T]|0>   2.58648816549848     
  total norm contribution   2.58648816549848     
 oo  1.044450164840504E-002
 vv  -17.1739180160473     
 vo  1.783052061386821E-002
  Correlated perturbed 1-el contribution to DBOC  -17.1456429937850       cm**-1
  SUM_I |dc_I/dx|^2 contribution to DBOC   8.65283430515047       cm**-1
 
 
  The total diagonal Born-Oppenheimer correction (DBOC) is:      0.0038688116 a.u.
  The total diagonal Born-Oppenheimer correction (DBOC) is:        849.105998 cm-1
 
 Total CC energy including DBOC  -113.028027440255     
 First-order density matrix is being calculated  (Symmetry block 3, perturbation   2)
 Calculation of the contributions of <pq||rs> to dI(i,j)/dx required   6.8 seconds.
 Calculation of the contributions of <pq||rs> to dI(a,b)/dx required  15.5 seconds.
 Calculation of the contributions of <pq||rs> to dI(i,a)/dx required   9.0 seconds.
 First-order Z-vector equations are solved for 1 perturbation.
 Convergence reached after  20 iterations.
        U*G(pq,rs) contribution is being calculated
             (Symmetry block 3, perturbation   2)

 CCSD contribution to force constants 

        0.0000000000        0.0000000000        0.0000000000
        0.0000000000        0.0000000000        0.0000000000
        0.0000000000        0.0000000000        0.0000000000
        0.0000000000        0.0000000000        0.0000000000
        0.0000000000        0.0000000000        0.0000000000
        0.0000000000        0.0000000000        0.0000000000
        0.0000000000        0.0000000000        0.0000000000
        0.0000000000        0.0000000000        0.0000000000
        0.0000000000        0.0000000000        0.0000000000
        0.0000000000        0.0000000000        0.0000000000
        0.0000000000        0.0000000000        0.0000000000
        0.0000000000       -8.5079640054        8.5079640054

 CCSD contribution to dipole derivatives 

        0.0000000000        0.0000000000        0.0000000000
        0.0000000000        0.0000000000        0.0000000000
        0.0000000000        0.0000000000        0.0000000000
        0.0000000000        0.0000000000       -0.0566362764
        0.0000000000        0.0000000000        0.0000000000
        0.0000000000        0.0000000000        0.0000000000
 @CHECKOUT-I, Total execution time (CPU/WALL):     1231.44/     463.57 seconds.
--executable xsdcc finished with status     0 in      463.77 seconds (walltime).
 --invoking executable--
/nfs/workspaces/public/cfour_mpi/bin/xanti
 @GETMEM-I,  Allocated    3814 MB of main memory.
 CCSD MO derivative gammas will be sorted to Mulliken order.
 @CHECKOUT-I, Total execution time (CPU/WALL):       11.94/      30.74 seconds.
--executable xanti finished with status     0 in       30.88 seconds (walltime).
 --invoking executable--
/nfs/workspaces/public/cfour_mpi/bin/xbcktrn
 @GETMEM-I,  Allocated    3814 MB of main memory.
 CCSD MO derivative gammas will be transformed to the AO basis.
 @CHECKOUT-I, Total execution time (CPU/WALL):       20.33/       2.94 seconds.
--executable xbcktrn finished with status     0 in        3.00 seconds (walltime).
 --invoking executable--
/nfs/workspaces/public/cfour_mpi/bin/xvdint
 @GETMEM-I,  Allocated    3814 MB of main memory.
 One- and two-electron integral derivatives are calculated
 for RHF-CC/MBPT hessians and dipole derivatives.
 Spherical gaussians are used.
  magnet F F
                    8722  records have been written to the Sort file.
  Total length of Sort file :             178609116  words.
 Evaluation of 2el integral derivatives

                      Two-electron integral gradient
                      ------------------------------

                         C #1 z     0.0000000000
                         O #2 z     0.0000000000


 C #1       0.0000000000            0.0782656848            0.0000000000
 O #2       0.0000000000           -0.0782656848            0.0000000000


 Evaluation of 2e integral derivatives required  296.79 seconds.
  contribution to Hessian
        0.0000000000        0.0000000000        0.0000000000
        0.0000000000        0.0782656848       -0.0782656848
 @CHECKOUT-I, Total execution time (CPU/WALL):      296.78/      63.56 seconds.
--executable xvdint finished with status     0 in       63.71 seconds (walltime).
 --invoking executable--
/nfs/workspaces/public/cfour_mpi/bin/xanti
 @GETMEM-I,  Allocated    3814 MB of main memory.
 CCSD MO gammas will be sorted to Mulliken order.
 @CHECKOUT-I, Total execution time (CPU/WALL):       16.72/      51.73 seconds.
--executable xanti finished with status     0 in       51.86 seconds (walltime).
 --invoking executable--
/nfs/workspaces/public/cfour_mpi/bin/xbcktrn
 @GETMEM-I,  Allocated    3814 MB of main memory.
 CCSD MO gammas will be transformed to the AO basis.
 @CHECKOUT-I, Total execution time (CPU/WALL):       65.30/      20.89 seconds.
--executable xbcktrn finished with status     0 in       20.98 seconds (walltime).
 --invoking executable--
/nfs/workspaces/public/cfour_mpi/bin/xvdint
 @GETMEM-I,  Allocated    3814 MB of main memory.
 One- and two-electron integral derivatives are calculated
 for RHF-CC/MBPT hessians and dipole derivatives.
 Spherical gaussians are used.
  magnet F F

                     Kinetic energy integral gradient
                     --------------------------------

                         C #1 z    -0.4212992876
                         O #2 z     0.4212992876


 C #1       0.0000000000            0.0000000000           -0.4212992876
 O #2       0.0000000000            0.0000000000            0.4212992876



                   Nuclear attraction integral gradient
                   ------------------------------------

                         C #1 z    12.1861869207
                         O #2 z   -12.1861869207


 C #1       0.0000000000            0.0000000000           12.1861869207
 O #2       0.0000000000            0.0000000000          -12.1861869207



                      Reorthonormalization gradient
                      -----------------------------

                         C #1 z     0.0000000000
                         O #2 z     0.0000000000


 C #1       0.0000000000            0.0000000000            0.0000000000
 O #2       0.0000000000            0.0000000000            0.0000000000



                     Kinetic energy integral Hessian
                     -------------------------------


           Symmetry 1

           C #1 z      O #2 z

 C #1 z    0.446373
 O #2 z   -0.446373    0.446373


           Symmetry 2

           C #1 x      O #2 x

 C #1 x   -0.289097
 O #2 x    0.289097   -0.289097


           Symmetry 3

           C #1 y      O #2 y

 C #1 y   -0.289097
 O #2 y    0.289097   -0.289097




           C #1 x      C #1 y      C #1 z      O #2 x      O #2 y      O #2 z

 C #1 x   -0.289097
 C #1 y    0.000000   -0.289097
 C #1 z    0.000000    0.000000    0.446373

 O #2 x    0.289097    0.000000    0.000000   -0.289097
 O #2 y    0.000000    0.289097    0.000000    0.000000   -0.289097
 O #2 z    0.000000    0.000000   -0.446373    0.000000    0.000000    0.446373




                   Nuclear attraction integral Hessian
                   -----------------------------------


           Symmetry 1

           C #1 z      O #2 z

 C #1 z   -7.250726
 O #2 z    7.250726   -7.250726


           Symmetry 2

           C #1 x      O #2 x

 C #1 x    5.903973
 O #2 x   -5.903973    5.903973


           Symmetry 3

           C #1 y      O #2 y

 C #1 y    5.903973
 O #2 y   -5.903973    5.903973




           C #1 x      C #1 y      C #1 z      O #2 x      O #2 y      O #2 z

 C #1 x    5.903973
 C #1 y    0.000000    5.903973
 C #1 z    0.000000    0.000000   -7.250726

 O #2 x   -5.903973    0.000000    0.000000    5.903973
 O #2 y    0.000000   -5.903973    0.000000    0.000000    5.903973
 O #2 z    0.000000    0.000000    7.250726    0.000000    0.000000   -7.250726




                Highest order reorthonormalization Hessian
                ------------------------------------------


           Symmetry 1

           C #1 z      O #2 z

 C #1 z    0.000000
 O #2 z    0.000000    0.000000


           Symmetry 2

           C #1 x      O #2 x

 C #1 x    0.000000
 O #2 x    0.000000    0.000000


           Symmetry 3

           C #1 y      O #2 y

 C #1 y    0.000000
 O #2 y    0.000000    0.000000




           C #1 x      C #1 y      C #1 z      O #2 x      O #2 y      O #2 z




                Electronic contributions to dipole moment
                -----------------------------------------

                               au             Debye

                    z     -0.71902746     -1.82758582

  Conversion factor used: 1 a.u. =   2.54174691 Debye 



   Electronic contributions to static part of dipole moment derivatives
   --------------------------------------------------------------------


                     Total dipole moment derivatives
                     -------------------------------


           Symmetry 1
                              Ez

               C #1 z    -5.63515316
               O #2 z    -8.36484684

           Symmetry 2
                              Ex

               C #1 x    -5.68480647
               O #2 x    -8.31519353

           Symmetry 3
                              Ey

               C #1 y    -5.68480647
               O #2 y    -8.31519353



                       Ex          Ey          Ez

      C #1    x   -5.684806    0.000000    0.000000
      C #1    y    0.000000   -5.684806    0.000000
      C #1    z    0.000000    0.000000   -5.635153

      O #2    x   -8.315194    0.000000    0.000000
      O #2    y    0.000000   -8.315194    0.000000
      O #2    z    0.000000    0.000000   -8.364847

 Evaluation of 1e integral derivatives required    1.67 seconds.
                    8815  records have been written to the Sort file.
  Total length of Sort file :             180513570  words.
 Evaluation of 2el integral derivatives

                      Two-electron integral gradient
                      ------------------------------

                         C #1 z    -6.6256260291
                         O #2 z     6.6256260291


 C #1       0.0000000000            0.0000000000           -6.6256260291
 O #2       0.0000000000            0.0000000000            6.6256260291


 Evaluation of 2e integral derivatives required  637.82 seconds.

                            Molecular gradient
                            ------------------

                         C #1 z     0.5257786619
                         O #2 z    -0.5257786619


 C #1       0.0000000000            0.0000000000            0.5257786619
 O #2       0.0000000000            0.0000000000           -0.5257786619


  Molecular gradient norm 0.744E+00

                            Molecular hessian
                            -----------------


           Symmetry 1

           C #1 z      O #2 z

 C #1 z    9.532138
 O #2 z   -9.532138    9.532138


           Symmetry 2

           C #1 x      O #2 x

 C #1 x    8.661565
 O #2 x   -8.661565    8.661565


           Symmetry 3

           C #1 y      O #2 y

 C #1 y    8.661565
 O #2 y   -8.661565    8.661565




           C #1 x      C #1 y      C #1 z      O #2 x      O #2 y      O #2 z

 C #1 x    8.661565
 C #1 y    0.000000    8.661565
 C #1 z    0.000000    0.000000    9.532138

 O #2 x   -8.661565    0.000000    0.000000    8.661565
 O #2 y    0.000000   -8.661565    0.000000    0.000000    8.661565
 O #2 z    0.000000    0.000000   -9.532138    0.000000    0.000000    9.532138




                           Total dipole moment
                           -------------------

                               au             Debye

                    z      0.57069401      1.45055975

  Conversion factor used: 1 a.u. =   2.54174691 Debye 



                     Total dipole moment derivatives
                     -------------------------------


           Symmetry 1
                              Ez

               C #1 z     0.49304754
               O #2 z    -0.49304754

           Symmetry 2
                              Ex

               C #1 x     0.18815254
               O #2 x    -0.18815254

           Symmetry 3
                              Ey

               C #1 y     0.18815254
               O #2 y    -0.18815254



                       Ex          Ey          Ez

      C #1    x    0.188153    0.000000    0.000000
      C #1    y    0.000000    0.188153    0.000000
      C #1    z    0.000000    0.000000    0.493048

      O #2    x   -0.188153    0.000000    0.000000
      O #2    y    0.000000   -0.188153    0.000000
      O #2    z    0.000000    0.000000   -0.493048

 @CHECKOUT-I, Total execution time (CPU/WALL):      639.48/     108.78 seconds.
--executable xvdint finished with status     0 in      108.98 seconds (walltime).
 --invoking executable--
/nfs/workspaces/public/cfour_mpi/bin/xjoda
  @GTFLGS-I, Hessian will be transformed to curvilinear coordinates.
  @GTFLGS-I, Hessian will be transformed to curvilinear coordinates.
  igrd and ihes are                      0                     1
  gradient from JOBARC 
   0.000000000000000   0.000000000000000   0.525778661900388
   0.000000000000000   0.000000000000000  -0.525778661900388
 
  @PROJFCM-I, Projecting force constant matrix onto totally symmetric subspace.
  Largest difference between matrix elements of symmetrized
  and unsymmetrized FCM :    -0.5029399119E-10.
  read isotopes from ZMAT file 
 
  Summary of diagonal Born-Oppenheimer correction at the correlated level
  The total diagonal Born-Oppenheimer correction (DBOC) is:      0.0038688116 a.u.
  The total diagonal Born-Oppenheimer correction (DBOC) is:        849.105998 cm-1
  The total diagonal Born-Oppenheimer correction (DBOC) is:            10.158 kJ/mole
  hellooooooo 
  readis is  F
 
 @CHECKOUT-I, Total execution time (CPU/WALL):        0.02/       0.08 seconds.
--executable xjoda finished with status     0 in        0.14 seconds (walltime).
  The final electronic energy is      -113.028027440255372 a.u. 
  This computation required                         4075.88 seconds (walltime).
