 --invoking executable--
/nfs/workspaces/public/cfour_mpi/bin/xjoda


   *************************************************************************
         <<<     CCCCCC     CCCCCC   |||     CCCCCC     CCCCCC   >>>
       <<<      CCC        CCC       |||    CCC        CCC         >>>
      <<<      CCC        CCC        |||   CCC        CCC            >>>
    <<<        CCC        CCC        |||   CCC        CCC              >>>
      <<<      CCC        CCC        |||   CCC        CCC            >>>
       <<<      CCC        CCC       |||    CCC        CCC         >>>
         <<<     CCCCCC     CCCCCC   |||     CCCCCC     CCCCCC   >>>
   *************************************************************************

     ****************************************************************
     * CFOUR Coupled-Cluster techniques for Computational Chemistry *
     ****************************************************************
 

   Department of Chemistry                Institut fuer Physikalische Chemie
   University of Florida                  Universitaet Mainz
   Gainesville, FL 32611, USA             D-55099 Mainz, Germany

   Department of Chemistry                Fakultaet fuer Chemie und Biowiss.
   Johns Hopkins University               Karlsruher Institut fuer Technologie
   Baltimore, MD 21218, USA               D-76131 Karlsruhe, Germany

   Department of Chemistry                Department of Physical Chemistry
   Southern Methodist University          Eotvos Lorand University
   Dallas, TX 75275, USA                  H-1053 Budapest, Hungary

 
                       Version 2.1
 
                     vincent.theory.phys.ucl.ac.uk                     
                     Sun  2 Mar 16:21:02 GMT 2025                      
                     integer*8 version is running
 
********************************************************************************
*                          Input from ZMAT file                                *
********************************************************************************
Carbon Monoxide DBOC calculation                                                
C                                                                               
O 1 r                                                                           
                                                                                
r=1.3655172413793104                                                            
                                                                                
                                                                                
*CFOUR(CALC=CCSD,BASIS=AUG-PCVQZ,SCF_CONV=10                                    
CC_CONV=14,DBOC=ON,MEMORY=500000000                                             
ZFIELD=-200)                                                                    
                                                                                
%isotopes                                                                       
12                                                                              
18                                                                              
********************************************************************************
  @GTFLGS-I, Hessian will be transformed to curvilinear coordinates.
    -------------------------------------------------------------------
                    CFOUR Control Parameters 
    -------------------------------------------------------------------
        External           Internal           Value            Units
          Name               Name
    -------------------------------------------------------------------
       ABCDTYPE             IABCDT         STANDARD    [  0]    ***   
       ANHARMONIC           IANHAR         OFF         [  0]    ***   
       ANH_ALGORIT          IANALG         STANDARD    [  0]    ***   
       ANH_DERIVAT          IANDER         SECOND      [  1]    ***   
       ANH_MODE             ANHMOD         VIBRATION   [  0]    ***   
       ANH_STEPSIZ          ICUBST             50000          x 10-6  
       ANH_SYMMETR          IANHSM         ABELIAN     [  0]    ***   
       AO_LADDERS           IAOLAD         SINGLEPASS  [  1]    ***   
       AV_SCF               IAVSCF         OFF         [  0]    ***   
       BASIS                IBASIS         AUG-PCVQZ   [ 52]    ***   
       BOTHVECTORS          BOTHVC         OFF         [  0]    ***   
       BOX_POTENT           IPIAB          OFF         [  0]    ***   
       BREIT                IBREIT         OFF         [  0]    ***   
       BRUCK_CONV           IBRTOL          10D-  4             ***   
       BRUECKNER            IBRKNR         OFF         [  0]    ***   
       BUFFERSIZE           IBUFFS              4096            ***   
       CACHE_RECS           ICHREC             10               ***   
       CALCLEVEL            ICLLVL         CCSD        [ 10]    ***   
       CCORBOPT             ICCORB         OFF         [  0]  x 0.01  
       CC_CONV              ICCCNV          10D- 14             ***   
       CC_EXPORDER          ICCEOR              5               ***   
       CC_EXTRAPOL          ICCEXT         DIIS        [  1]    ***   
       CC_GUESS             ICCGES         MP2         [  0]    ***   
       CC_MAXCYC            ICCCYC            100              cycles 
       CC_PROGRAM           ICCPRO         VCC         [  0]    ***   
       CHARGE               ICHRGE              0               ***   
       CHOLESKY             ICHOLE         OFF         [  0]    ***   
       CIS_CONV             ICISTL              5               ***   
       COMM_SIZE            IPSIZE            ***               ***   
       CONSTANT             ICONST         OLD         [  1]    ***   
       CONTINUUM            ICONTU         NONE        [  0]    ***   
       CONTRACTION          ICNTYP         GENERAL     [  1]    ***   
       COORDINATES          ICOORD         INTERNAL    [  0]    ***   
       CPHF_CONVER          ICPHFT          10D- 16             ***   
       CPHF_MAXCYC          ICPHFC             64              cycles 
       CUBIC                ICUBIC         OFF         [  0]    ***   
       CURVILINEAR          ICURVY         ON          [  1]    ***   
       DBOC                 IDBOC          ON          [  1]    ***   
       DCT                  IDCT           OFF         [  0]    ***   
       DERIV_LEV            IDRLVL         SECOND      [  2]    ***   
       DEVMEM_SIZE          IDVMEM          50000000           MByte  
       DIAG_MRCC            IEOMST          10D-  0             ***   
       DIFF_TYPE            IDIFTY         RELAXED     [  0]    ***   
       DIRECT               IDIRCT         OFF         [  0]    ***   
       DROPMO               IDRPMO      NONE         
       ECP                  IECP           OFF         [  0]    ***   
       EIGENVECTOR          IVEC                1               ***   
       EL_ANHARM            IELANH         OFF         [  0]    ***   
       EOMFOLLOW            IEOMSR         ENERGY      [  0]    ***   
       EOMIP                IEOMIP         OFF         [  0]    ***   
       EOMLEVEL             HBARFM         SAME        [  0]    ***   
       EOM_MRCC             IMRCCE         NEW         [  1]    ***   
       EOM_NONIT            EOMNON         OFF         [  0]    ***   
       EOM_NSING            IEOMSI          10D-  0             ***   
       EOM_NSTATES          IMRCCD         DAVIDSON    [  0]    ***   
       EOM_NTRIP            IEOMTR          10D-  0             ***   
       EOM_ORDER            IEXORD         ENERGY      [  0]    ***   
       EOM_PROPSTA          IEOMST              0               ***   
       ESTATE_CONV          IEXTOL          10D-  5             ***   
       ESTATE_DIAG          IEXDIG         ITERATIVE   [  0]    ***   
       ESTATE_LOCK          IESLOC         ON          [  1]    ***   
       ESTATE_MAXC          IEXMXC             40               ***   
       ESTATE_PROP          IEXPRP         OFF         [  0]    ***   
       EVAL_HESS            IRECAL              0            # of cyc.
       EXCITATION           IEXCIT              0               ***   
       EXCITE               IEXCIT         NONE        [  0]    ***   
       EXTERN_POT           IEXPOT         OFF         [  0]    ***   
       FCGRADNEW            IFCGNW         OFF         [  0]    ***   
       FC_FIELD             IFINFC              0             x 10-6  
       FD_CALTYPE           IFDCAL         GRADONLY    [  0]    ***   
       FD_PROJECT           IFDPRJ         OFF         [  1]    ***   
       FD_STEPSIZE          IDISFD              0            10-4 bohr
       FD_USEGROUP          IFDGRP         FULL        [  0]    ***   
       FILE_RECSIZ          IFLREC              4096           words  
       FINITE_PERT          IFIPER              0             x 10-6  
       FIXGEOM              IFIXGM         OFF         [  0]    ***   
       FOCK                 IFOCK          AO          [  1]    ***   
       FREQ_ALGORI          IVIALG         STANDARD    [  0]    ***   
       FROZEN_CORE          IFROCO         OFF         [  0]    ***   
       GAMMA_ABCD           IGABCD         STORE       [  0]    ***   
       GAMMA_ABCI           IGABCI         STORE       [  0]    ***   
       GENBAS_1             IGNBS1              0               ***   
       GENBAS_2             IGNBS2              0               ***   
       GENBAS_3             IGNBS3              0               ***   
       GENBAS_4             IGNBS4              0               ***   
       GEO_CONV             ICONTL              5              H/bohr 
       GEO_MAXCYC           IOPTCY             50               ***   
       GEO_MAXSTEP          IMXSTP            300            millibohr
       GEO_METHOD           INR            SINGLE_POINT[  5]    ***   
       GIAO                 IGIAO          OFF         [  1]    ***   
       GIMIC                IGIMIC         OFF         [  0]    ***   
       GRID                 IGRID          OFF         [  0]    ***   
       GRID_ALGO            IGALGO         SERIAL      [  0]    ***   
       GUESS                IGUESS         MOREAD      [  0]    ***   
       HBAR                 IHBAR          OFF         [  0]    ***   
       HESS_TYPE            IHESTP         SCF         [  0]    ***   
       HF2_FILE             IHF2Fl         USE         [  1]    ***   
       HFSTABILITY          ISTABL         OFF         [  0]    ***   
       INCORE               INCORE         OFF         [  0]    ***   
       INPUT_MRCC           IMRCC          ON          [  1]    ***   
       INTEGRALS            INTTYP         VMOL        [  1]    ***   
       JODA_PRINT           IJPRNT              0               ***   
       KEYWORD_OUT          IDMPKW         NO          [  0]    ***   
       LINDEP_TOL           ILINDP              8               ***   
       LINEQ_CONV           IZTACN          10D-  7           cycles  
       LINEQ_EXPOR          ILMAXD              5               ***   
       LINEQ_MAXCY          ILMAXC            100               ***   
       LINEQ_TYPE           ILTYPE         DIIS        [  1]    ***   
       LOCK_ORBOCC          ILOCOC         OFF         [  0]    ***   
       MEMORY_SIZE          IMEMSZ         500000000           words  
       MEM_UNIT             IMEMU          INTEGERWORDS[  0]    ***   
       MRCC                 IMRCCC         OFF         [  0]    ***   
       MULTIPLICTY          IMULTP              1               ***   
       NACOUPLING           IVCOUP         OFF         [  0]    ***   
       NEGEVAL              IDIE           ABORT       [  0]    ***   
       NEWNORM              INEWNO         OFF         [  0]    ***   
       NON-HF               INONHF         OFF         [  0]    ***   
       NTOP_TAMP            ITOPT2             15               ***   
       NUC_MODEL            INUCMO         POINT       [  0]    ***   
       OCCUPATION           IOCCU   ESTIMATED BY SCF 
       OPEN-SHELL           IOPEN          SPIN-ORBITAL[  0]    ***   
       OPTVIB               IOPTVB         OFF         [  0]    ***   
       ORBITALS             IORBTP         STANDARD    [  0]    ***   
       PARALLEL             IPARAL         ON          [  1]    ***   
       PARA_INT             IPINTS         ON          [  1]    ***   
       PARA_PRINT           IPPRIN              0               ***   
       PERT_ORB             IPTORB         STANDARD    [  0]    ***   
       POINTS               IGRDFD              0               ***   
       PRINT                IPRNT               0               ***   
       PROPS                IPROPS         OFF         [  0]    ***   
       PROP_INTEGR          IINTYP         INTERNAL    [  0]    ***   
       PSI                  IPSI           OFF         [  0]    ***   
       QC_ALG               IQCALG         FLM         [  0]    ***   
       QC_LINALG            IQCLIN         TRIDIAG     [  2]    ***   
       QC_MAXCYC            IQCMAX          10D-100           cycles  
       QC_MAXSCFCY          IQCMSC          10D- 15           cycles  
       QC_RTRUST            IQCRTR          10D-  0           x 10-3  
       QC_SKIPSCF           IQCSKI         OFF         [  0]    ***   
       QC_START             IQCSTA          10D-  1             ***   
       QRHFGUESS            IQGUES         OFF         [  0]    ***   
       QUARTIC              IQUART         OFF         [  0]    ***   
       RAMAN_INT            IRAMIN         OFF         [  0]    ***   
       RAMAN_ORB            IRAMRE         UNRELAXED   [  0]    ***   
       RDO                  IRDOFM         ON          [  1]    ***   
       REDUCE_REPR          REDREP         Ir          [  0]    ***   
       REFERENCE            IREFNC         RHF         [  0]    ***   
       RELATIVIST           IRELAT         OFF         [  0]    ***   
       RELAX_DENS           IRDENS         ON          [  1]    ***   
       RESET_FLAGS          IRESET         OFF         [  0]    ***   
       RESTART_CC           ICCRES         OFF         [  0]    ***   
       ROT_EVEC             ROTVEC              0               ***   
       SAVE_INTS            ISVINT         OFF         [  0]    ***   
       SCALE_ON             ISTCRT              0               ***   
       SCF_CONV             ISCFCV          10D- 10             ***   
       SCF_DAMPING          IDAMP               0             x 10-3  
       SCF_EXPORDE          IRPPOR              6               ***   
       SCF_EXPSTAR          IRPPLS              8               ***   
       SCF_EXTRAPO          IRPP           ON          [  1]    ***   
       SCF_MAXCYC           ISCFCY            150              cycles 
       SCF_NOSTOP           ISCFST         OFF         [  0]    ***   
       SCF_PRINT            ISCFPR              0               ***   
       SCF_PROG             ISCFPR         SCF         [  0]    ***   
       SD_FIELD             IFINSD              0             x 10-6  
       SOPERT               IPERSO         OFF         [  0]    ***   
       SPHERICAL            IDFGHI         ON          [  1]    ***   
       SPINORBIT            ISOCAL         OFF         [  0]    ***   
       SPINROTATIO          ISRCON         OFF         [  0]    ***   
       SPIN_FLIP            ISPFLP         OFF         [  0]    ***   
       SPIN_ORBIT           ISPORB         OFF         [  0]    ***   
       SPIN_SCAL            ISCSMP         OFF         [  0]    ***   
       STEEPSCALE           ISTPSC              1000          x 10-3  
       SUBGROUP             ISUBGP         DEFAULT     [  0]    ***   
       SUBGRPAXIS           ISBXYZ         X           [  0]    ***   
       SYMMETRY             ISYM           ON          [  0]    ***   
       SYM_CHECK            ISYMCK         OVERRIDE    [  1]    ***   
       T3_EXTRAPOL          IT3EXT         OFF         [  0]    ***   
       T4_EXTRAPOL          IT4EXP         OFF         [  0]    ***   
       TAMP_SUM             IEVERY              5               ***   
       TESTSUITE            ITESTS         OFF         [  0]    ***   
       THERMOCH             ITHERM         OFF         [  0]    ***   
       TOL_CHOLESK          ITOLCH          10D-  4             ***   
       TRANGRAD             IRESRM         OFF         [  0]    ***   
       TRANS_INV            ITRAIN         IGNORE      [  1]    ***   
       TREAT_PERT           ITREAT         SIMULTANEOUS[  0]    ***   
       TRIP_ALGORI          ITRALG         NORMAL      [  0]    ***   
       UIJ_THRESHO          IUIJTH              1               ***   
       UNITS                IUNITS         ANGSTROM    [  0]    ***   
       UNOS                 IUNOS          OFF         [  0]    ***   
       UPDATE_HESS          IHUPDT         ON          [  1]    ***   
       VIBPHASE             ISETPH         STANDARD    [  0]    ***   
       VIBRATION            IVIB           ANALYTIC    [  1]    ***   
       VIB_ALGORIT          IGEALG         STANDARD    [  0]    ***   
       VNATORB              IVNORB         OFF         [  0]    ***   
       VTRAN                IVTRAN         FULL/PARTIAL[  0]    ***   
       XFIELD               IXEFLD              0             x 10-6  
       XFORM_TOL            IXFTOL          10D- 11             ***   
       YFIELD               IYEFLD              0             x 10-6  
       ZFIELD               IZEFLD            ***             x 10-6  
       ZSCALE_EXP           IZEXPS         OFF         [  0]    ***   
    -------------------------------------------------------------------
   2 entries found in Z-matrix 
   Job Title : Carbon Monoxide DBOC calculation                                                
   There are  1 unique internal coordinates.
   Of these,  0 will be optimized.
   User supplied Z-matrix: 
--------------------------------------------------------------------------------
       SYMBOL    BOND      LENGTH    ANGLE     ANGLE     DIHED     ANGLE
                  TO      (ANGST)    WRT      (DEG)      WRT      (DEG)
--------------------------------------------------------------------------------
        C    
        O          1         r    
                  *Initial values for internal coordinates* 
                      Name             Value
                        r               1.3655172414
--------------------------------------------------------------------------------
  read isotopes from ZMAT file 
   Rotational constants (in cm-1): 
          1.2556765590             1.2556765590
   Rotational constants (in MHz): 
      37644.2414821478         37644.2414821478
********************************************************************************
   The full molecular point group is CXv .
   The largest Abelian subgroup of the full molecular point group is C2v .
   The computational point group is C2v .
********************************************************************************
--------------------------------------------------------------------------------
   Analysis of internal coordinates specified by Z-matrix 
--------------------------------------------------------------------------------
   *The nuclear repulsion energy is   18.601376848484847 a.u.
   *There is   1 degree of freedom within the tot. symm. molecular subspace.
   *Z-matrix requests optimization of   0 coordinates.
   *The optimization is constrained.
   *The following   1 parameters can have non-zero 
    derivatives within the totally symmetric subspace:
             r    [ 1]
   *The following   0 parameters are to be optimized:

   *The following coordinates must be varied in an  unconstrained optimization.
             r    [ 1]
--------------------------------------------------------------------------------


 ----------------------------------------------------------------
         Coordinates used in calculation (QCOMP) 
 ----------------------------------------------------------------
 Z-matrix   Atomic            Coordinates (in bohr)
  Symbol    Number           X              Y              Z
 ----------------------------------------------------------------
     C         6        -0.00000000     0.00000000     1.54824360
     O         8         0.00000000     0.00000000    -1.03221055
 ----------------------------------------------------------------
 
   Interatomic distance matrix (Angstroms) 
 
                 C             O    
                [ 1]        [ 2]
  C    [ 1]     0.00000
  O    [ 2]     1.36552     0.00000
 rotcon2
   Rotational constants (in cm-1): 
          1.2556765590             0.0000000000
   Rotational constants (in MHz): 
      37644.2414821478             0.0000000000
  ECPDATA file not present.   Using default ECPDATA. 
  @GTFLGS-I, Hessian will be transformed to curvilinear coordinates.
  There are  218 basis functions.
 @CHECKOUT-I, Total execution time (CPU/WALL):        0.19/       0.28 seconds.
--executable xjoda finished with status     0 in        0.31 seconds (walltime).
 --invoking executable--
/nfs/workspaces/public/cfour_mpi/bin/xvmol
 SERIAL VERSION OF MOLECULE STARTED
********************************************************************************
                    INPUT FROM MOL FILE
********************************************************************************
INTGRL        1    0    1    0    0    0    0    0    0                         
         *** CFOUR Program System (Release V0.1) ***                            
Carbon Monoxide DBOC calculation                                                
    2    2 X  Y       0.10E-08              0    0                              
   9999.00      3.00                                                            
          6.00000000    1    5    1    1    1    1    1                         
C #1  -0.000000000000000   0.000000000000000   1.548243595704764                
   16    9                                                                      
   33980.0000000000       9.100000000000000E-005 -1.900000000000000E-005        
  0.000000000000000E+000  0.000000000000000E+000  0.000000000000000E+000        
  0.000000000000000E+000  0.000000000000000E+000  0.000000000000000E+000        
  0.000000000000000E+000                                                        
   5089.00000000000       7.040000000000000E-004 -1.510000000000000E-004        
  0.000000000000000E+000  0.000000000000000E+000  0.000000000000000E+000        
  0.000000000000000E+000  0.000000000000000E+000  0.000000000000000E+000        
  0.000000000000000E+000                                                        
   1157.00000000000       3.693000000000000E-003 -7.850000000000000E-004        
  0.000000000000000E+000  0.000000000000000E+000  0.000000000000000E+000        
  0.000000000000000E+000  0.000000000000000E+000  0.000000000000000E+000        
  0.000000000000000E+000                                                        
   326.600000000000       1.536000000000000E-002 -3.324000000000000E-003        
  0.000000000000000E+000  0.000000000000000E+000  0.000000000000000E+000        
  0.000000000000000E+000  0.000000000000000E+000  0.000000000000000E+000        
  0.000000000000000E+000                                                        
   106.100000000000       5.292900000000000E-002 -1.151200000000000E-002        
  0.000000000000000E+000  0.000000000000000E+000  0.000000000000000E+000        
  0.000000000000000E+000  0.000000000000000E+000  0.000000000000000E+000        
  0.000000000000000E+000                                                        
   38.1100000000000       0.147043000000000      -3.416000000000000E-002        
  0.000000000000000E+000  0.000000000000000E+000  0.000000000000000E+000        
  0.000000000000000E+000  0.000000000000000E+000  0.000000000000000E+000        
  0.000000000000000E+000                                                        
   14.7500000000000       0.305631000000000      -7.717300000000001E-002        
  0.000000000000000E+000  0.000000000000000E+000  0.000000000000000E+000        
  0.000000000000000E+000  0.000000000000000E+000  0.000000000000000E+000        
  0.000000000000000E+000                                                        
   6.03500000000000       0.399345000000000      -0.141493000000000             
  0.000000000000000E+000  0.000000000000000E+000  0.000000000000000E+000        
  0.000000000000000E+000  0.000000000000000E+000  0.000000000000000E+000        
  0.000000000000000E+000                                                        
   2.53000000000000       0.217051000000000      -0.118019000000000             
  0.000000000000000E+000  0.000000000000000E+000  0.000000000000000E+000        
  0.000000000000000E+000  0.000000000000000E+000  0.000000000000000E+000        
  0.000000000000000E+000                                                        
  0.735500000000000       1.589400000000000E-002  0.273806000000000             
   1.00000000000000       0.000000000000000E+000  0.000000000000000E+000        
  0.000000000000000E+000  0.000000000000000E+000  0.000000000000000E+000        
  0.000000000000000E+000                                                        
  0.290500000000000      -3.084000000000000E-003  0.586510000000000             
  0.000000000000000E+000   1.00000000000000       0.000000000000000E+000        
  0.000000000000000E+000  0.000000000000000E+000  0.000000000000000E+000        
  0.000000000000000E+000                                                        
  0.111100000000000       9.779999999999999E-004  0.285430000000000             
  0.000000000000000E+000  0.000000000000000E+000   1.00000000000000             
  0.000000000000000E+000  0.000000000000000E+000  0.000000000000000E+000        
  0.000000000000000E+000                                                        
   7.21600000000000       0.000000000000000E+000  0.000000000000000E+000        
  0.000000000000000E+000  0.000000000000000E+000  0.000000000000000E+000        
   1.00000000000000       0.000000000000000E+000  0.000000000000000E+000        
  0.000000000000000E+000                                                        
   19.5700000000000       0.000000000000000E+000  0.000000000000000E+000        
  0.000000000000000E+000  0.000000000000000E+000  0.000000000000000E+000        
  0.000000000000000E+000   1.00000000000000       0.000000000000000E+000        
  0.000000000000000E+000                                                        
   53.0730000000000       0.000000000000000E+000  0.000000000000000E+000        
  0.000000000000000E+000  0.000000000000000E+000  0.000000000000000E+000        
  0.000000000000000E+000  0.000000000000000E+000   1.00000000000000             
  0.000000000000000E+000                                                        
  4.145000000000000E-002  0.000000000000000E+000  0.000000000000000E+000        
  0.000000000000000E+000  0.000000000000000E+000  0.000000000000000E+000        
  0.000000000000000E+000  0.000000000000000E+000  0.000000000000000E+000        
   1.00000000000000                                                             
   10    8                                                                      
   34.5100000000000       5.378000000000000E-003  0.000000000000000E+000        
  0.000000000000000E+000  0.000000000000000E+000  0.000000000000000E+000        
  0.000000000000000E+000  0.000000000000000E+000  0.000000000000000E+000        
   7.91500000000000       3.613200000000000E-002  0.000000000000000E+000        
  0.000000000000000E+000  0.000000000000000E+000  0.000000000000000E+000        
  0.000000000000000E+000  0.000000000000000E+000  0.000000000000000E+000        
   2.36800000000000       0.142493000000000       0.000000000000000E+000        
  0.000000000000000E+000  0.000000000000000E+000  0.000000000000000E+000        
  0.000000000000000E+000  0.000000000000000E+000  0.000000000000000E+000        
  0.813200000000000       0.342150000000000        1.00000000000000             
  0.000000000000000E+000  0.000000000000000E+000  0.000000000000000E+000        
  0.000000000000000E+000  0.000000000000000E+000  0.000000000000000E+000        
  0.289000000000000       0.463864000000000       0.000000000000000E+000        
   1.00000000000000       0.000000000000000E+000  0.000000000000000E+000        
  0.000000000000000E+000  0.000000000000000E+000  0.000000000000000E+000        
  0.100700000000000       0.250028000000000       0.000000000000000E+000        
  0.000000000000000E+000   1.00000000000000       0.000000000000000E+000        
  0.000000000000000E+000  0.000000000000000E+000  0.000000000000000E+000        
   8.18200000000000       0.000000000000000E+000  0.000000000000000E+000        
  0.000000000000000E+000  0.000000000000000E+000   1.00000000000000             
  0.000000000000000E+000  0.000000000000000E+000  0.000000000000000E+000        
   24.1860000000000       0.000000000000000E+000  0.000000000000000E+000        
  0.000000000000000E+000  0.000000000000000E+000  0.000000000000000E+000        
   1.00000000000000       0.000000000000000E+000  0.000000000000000E+000        
   71.4940000000000       0.000000000000000E+000  0.000000000000000E+000        
  0.000000000000000E+000  0.000000000000000E+000  0.000000000000000E+000        
  0.000000000000000E+000   1.00000000000000       0.000000000000000E+000        
  3.218000000000000E-002  0.000000000000000E+000  0.000000000000000E+000        
  0.000000000000000E+000  0.000000000000000E+000  0.000000000000000E+000        
  0.000000000000000E+000  0.000000000000000E+000   1.00000000000000             
    6    6                                                                      
   1.84800000000000        1.00000000000000       0.000000000000000E+000        
  0.000000000000000E+000  0.000000000000000E+000  0.000000000000000E+000        
  0.000000000000000E+000                                                        
  0.649000000000000       0.000000000000000E+000   1.00000000000000             
  0.000000000000000E+000  0.000000000000000E+000  0.000000000000000E+000        
  0.000000000000000E+000                                                        
  0.228000000000000       0.000000000000000E+000  0.000000000000000E+000        
   1.00000000000000       0.000000000000000E+000  0.000000000000000E+000        
  0.000000000000000E+000                                                        
   8.65600000000000       0.000000000000000E+000  0.000000000000000E+000        
  0.000000000000000E+000   1.00000000000000       0.000000000000000E+000        
  0.000000000000000E+000                                                        
   33.2130000000000       0.000000000000000E+000  0.000000000000000E+000        
  0.000000000000000E+000  0.000000000000000E+000   1.00000000000000             
  0.000000000000000E+000                                                        
  7.660000000000000E-002  0.000000000000000E+000  0.000000000000000E+000        
  0.000000000000000E+000  0.000000000000000E+000  0.000000000000000E+000        
   1.00000000000000                                                             
    4    4                                                                      
   1.41900000000000        1.00000000000000       0.000000000000000E+000        
  0.000000000000000E+000  0.000000000000000E+000                                
  0.485000000000000       0.000000000000000E+000   1.00000000000000             
  0.000000000000000E+000  0.000000000000000E+000                                
   24.6940000000000       0.000000000000000E+000  0.000000000000000E+000        
   1.00000000000000       0.000000000000000E+000                                
  0.187000000000000       0.000000000000000E+000  0.000000000000000E+000        
  0.000000000000000E+000   1.00000000000000                                     
    2    2                                                                      
   1.01100000000000        1.00000000000000       0.000000000000000E+000        
  0.424000000000000       0.000000000000000E+000   1.00000000000000             
          8.00000000    1    5    1    1    1    1    1                         
O #2   0.000000000000000   0.000000000000000  -1.032210549758656                
   16    9                                                                      
   61420.0000000000       9.000000000000001E-005 -2.000000000000000E-005        
  0.000000000000000E+000  0.000000000000000E+000  0.000000000000000E+000        
  0.000000000000000E+000  0.000000000000000E+000  0.000000000000000E+000        
  0.000000000000000E+000                                                        
   9199.00000000000       6.980000000000001E-004 -1.590000000000000E-004        
  0.000000000000000E+000  0.000000000000000E+000  0.000000000000000E+000        
  0.000000000000000E+000  0.000000000000000E+000  0.000000000000000E+000        
  0.000000000000000E+000                                                        
   2091.00000000000       3.664000000000000E-003 -8.290000000000000E-004        
  0.000000000000000E+000  0.000000000000000E+000  0.000000000000000E+000        
  0.000000000000000E+000  0.000000000000000E+000  0.000000000000000E+000        
  0.000000000000000E+000                                                        
   590.900000000000       1.521800000000000E-002 -3.508000000000000E-003        
  0.000000000000000E+000  0.000000000000000E+000  0.000000000000000E+000        
  0.000000000000000E+000  0.000000000000000E+000  0.000000000000000E+000        
  0.000000000000000E+000                                                        
   192.300000000000       5.242300000000000E-002 -1.215600000000000E-002        
  0.000000000000000E+000  0.000000000000000E+000  0.000000000000000E+000        
  0.000000000000000E+000  0.000000000000000E+000  0.000000000000000E+000        
  0.000000000000000E+000                                                        
   69.3200000000000       0.145921000000000      -3.626100000000000E-002        
  0.000000000000000E+000  0.000000000000000E+000  0.000000000000000E+000        
  0.000000000000000E+000  0.000000000000000E+000  0.000000000000000E+000        
  0.000000000000000E+000                                                        
   26.9700000000000       0.305258000000000      -8.299200000000000E-002        
  0.000000000000000E+000  0.000000000000000E+000  0.000000000000000E+000        
  0.000000000000000E+000  0.000000000000000E+000  0.000000000000000E+000        
  0.000000000000000E+000                                                        
   11.1000000000000       0.398508000000000      -0.152090000000000             
  0.000000000000000E+000  0.000000000000000E+000  0.000000000000000E+000        
  0.000000000000000E+000  0.000000000000000E+000  0.000000000000000E+000        
  0.000000000000000E+000                                                        
   4.68200000000000       0.216980000000000      -0.115331000000000             
  0.000000000000000E+000  0.000000000000000E+000  0.000000000000000E+000        
  0.000000000000000E+000  0.000000000000000E+000  0.000000000000000E+000        
  0.000000000000000E+000                                                        
   1.42800000000000       1.759400000000000E-002  0.288979000000000             
   1.00000000000000       0.000000000000000E+000  0.000000000000000E+000        
  0.000000000000000E+000  0.000000000000000E+000  0.000000000000000E+000        
  0.000000000000000E+000                                                        
  0.554700000000000      -2.502000000000000E-003  0.586128000000000             
  0.000000000000000E+000   1.00000000000000       0.000000000000000E+000        
  0.000000000000000E+000  0.000000000000000E+000  0.000000000000000E+000        
  0.000000000000000E+000                                                        
  0.206700000000000       9.540000000000000E-004  0.277624000000000             
  0.000000000000000E+000  0.000000000000000E+000   1.00000000000000             
  0.000000000000000E+000  0.000000000000000E+000  0.000000000000000E+000        
  0.000000000000000E+000                                                        
   12.9740000000000       0.000000000000000E+000  0.000000000000000E+000        
  0.000000000000000E+000  0.000000000000000E+000  0.000000000000000E+000        
   1.00000000000000       0.000000000000000E+000  0.000000000000000E+000        
  0.000000000000000E+000                                                        
   34.9000000000000       0.000000000000000E+000  0.000000000000000E+000        
  0.000000000000000E+000  0.000000000000000E+000  0.000000000000000E+000        
  0.000000000000000E+000   1.00000000000000       0.000000000000000E+000        
  0.000000000000000E+000                                                        
   93.8810000000000       0.000000000000000E+000  0.000000000000000E+000        
  0.000000000000000E+000  0.000000000000000E+000  0.000000000000000E+000        
  0.000000000000000E+000  0.000000000000000E+000   1.00000000000000             
  0.000000000000000E+000                                                        
  6.959000000000000E-002  0.000000000000000E+000  0.000000000000000E+000        
  0.000000000000000E+000  0.000000000000000E+000  0.000000000000000E+000        
  0.000000000000000E+000  0.000000000000000E+000  0.000000000000000E+000        
   1.00000000000000                                                             
   10    8                                                                      
   63.4200000000000       6.044000000000000E-003  0.000000000000000E+000        
  0.000000000000000E+000  0.000000000000000E+000  0.000000000000000E+000        
  0.000000000000000E+000  0.000000000000000E+000  0.000000000000000E+000        
   14.6600000000000       4.179900000000000E-002  0.000000000000000E+000        
  0.000000000000000E+000  0.000000000000000E+000  0.000000000000000E+000        
  0.000000000000000E+000  0.000000000000000E+000  0.000000000000000E+000        
   4.45900000000000       0.161143000000000       0.000000000000000E+000        
  0.000000000000000E+000  0.000000000000000E+000  0.000000000000000E+000        
  0.000000000000000E+000  0.000000000000000E+000  0.000000000000000E+000        
   1.53100000000000       0.356731000000000        1.00000000000000             
  0.000000000000000E+000  0.000000000000000E+000  0.000000000000000E+000        
  0.000000000000000E+000  0.000000000000000E+000  0.000000000000000E+000        
  0.530200000000000       0.448309000000000       0.000000000000000E+000        
   1.00000000000000       0.000000000000000E+000  0.000000000000000E+000        
  0.000000000000000E+000  0.000000000000000E+000  0.000000000000000E+000        
  0.175000000000000       0.244940000000000       0.000000000000000E+000        
  0.000000000000000E+000   1.00000000000000       0.000000000000000E+000        
  0.000000000000000E+000  0.000000000000000E+000  0.000000000000000E+000        
   14.4750000000000       0.000000000000000E+000  0.000000000000000E+000        
  0.000000000000000E+000  0.000000000000000E+000   1.00000000000000             
  0.000000000000000E+000  0.000000000000000E+000  0.000000000000000E+000        
   42.7300000000000       0.000000000000000E+000  0.000000000000000E+000        
  0.000000000000000E+000  0.000000000000000E+000  0.000000000000000E+000        
   1.00000000000000       0.000000000000000E+000  0.000000000000000E+000        
   126.140000000000       0.000000000000000E+000  0.000000000000000E+000        
  0.000000000000000E+000  0.000000000000000E+000  0.000000000000000E+000        
  0.000000000000000E+000   1.00000000000000       0.000000000000000E+000        
  5.348000000000000E-002  0.000000000000000E+000  0.000000000000000E+000        
  0.000000000000000E+000  0.000000000000000E+000  0.000000000000000E+000        
  0.000000000000000E+000  0.000000000000000E+000   1.00000000000000             
    6    6                                                                      
   3.77500000000000        1.00000000000000       0.000000000000000E+000        
  0.000000000000000E+000  0.000000000000000E+000  0.000000000000000E+000        
  0.000000000000000E+000                                                        
   1.30000000000000       0.000000000000000E+000   1.00000000000000             
  0.000000000000000E+000  0.000000000000000E+000  0.000000000000000E+000        
  0.000000000000000E+000                                                        
  0.444000000000000       0.000000000000000E+000  0.000000000000000E+000        
   1.00000000000000       0.000000000000000E+000  0.000000000000000E+000        
  0.000000000000000E+000                                                        
   14.9270000000000       0.000000000000000E+000  0.000000000000000E+000        
  0.000000000000000E+000   1.00000000000000       0.000000000000000E+000        
  0.000000000000000E+000                                                        
   57.5440000000000       0.000000000000000E+000  0.000000000000000E+000        
  0.000000000000000E+000  0.000000000000000E+000   1.00000000000000             
  0.000000000000000E+000                                                        
  0.154000000000000       0.000000000000000E+000  0.000000000000000E+000        
  0.000000000000000E+000  0.000000000000000E+000  0.000000000000000E+000        
   1.00000000000000                                                             
    4    4                                                                      
   2.66600000000000        1.00000000000000       0.000000000000000E+000        
  0.000000000000000E+000  0.000000000000000E+000                                
  0.859000000000000       0.000000000000000E+000   1.00000000000000             
  0.000000000000000E+000  0.000000000000000E+000                                
   26.4830000000000       0.000000000000000E+000  0.000000000000000E+000        
   1.00000000000000       0.000000000000000E+000                                
  0.324000000000000       0.000000000000000E+000  0.000000000000000E+000        
  0.000000000000000E+000   1.00000000000000                                     
    2    2                                                                      
   1.84600000000000        1.00000000000000       0.000000000000000E+000        
  0.714000000000000       0.000000000000000E+000   1.00000000000000             
FINISH                                                                          
 
********************************************************************************
 ONE- AND TWO-ELECTRON INTEGRALS OVER SYMMETRY-ADAPTED AOS ARE CALCULATED.

  SPHERICAL HARMONICS ARE USED.
  
  INTEGRALS LESS THAN  0.10E-13 ARE NEGLECTED.

  NUCLEAR REPULSION ENERGY :   18.6013768485 A.U.
  @MOLECU-I, ONE ELECTRON INTEGRALS (CPU/WALL):        0.05/       0.06 SECONDS.
  @TWOEL-I,    4506327 INTEGRALS OF SYMMETRY TYPE  I I I I
  @TWOEL-I,   19416400 INTEGRALS OF SYMMETRY TYPE  I J I J
  @TWOEL-I,   10224506 INTEGRALS OF SYMMETRY TYPE  I I J J
  @TWOEL-I,   14375300 INTEGRALS OF SYMMETRY TYPE  I J K L
  @TWOEL-I, TOTAL NUMBER OF 2-E INTEGRALS   48522533.
  @MOLECU-I, TWO ELECTRON INTEGRALS (CPU/WALL):      228.89/      31.33 SECONDS.
 @CHECKOUT-I, Total execution time (CPU/WALL):      228.96/      31.41 seconds.

Running with 14 threads/proc

--executable xvmol finished with status     0 in       31.44 seconds (walltime).
 --invoking executable--
/nfs/workspaces/public/cfour_mpi/bin/xvmol2ja
 @GETMEM-I,  Allocated    3814 MB of main memory.
 @CHECKOUT-I, Total execution time (CPU/WALL):        0.16/       0.08 seconds.
--executable xvmol2ja finished with status     0 in        0.10 seconds (walltime).
 --invoking executable--
/nfs/workspaces/public/cfour_mpi/bin/xvprop
 @GETMEM-I,  Allocated    3814 MB of main memory.
   Property integrals will be calculated.
    --------------------------------------------------------------
                                   Property evaluated at 
    Property type                X             Y             Z
    --------------------------------------------------------------
    Dipole moment               ----          ----          ----  
    Quadrupole moment           ----          ----          ----  
    Octopole moment             ----          ----          ----  
    Relativisitic corr.         ----          ----          ----  
    Second moment            0.0000000     0.0000000     0.0000000
    Electron density         0.0000000     0.0000000     1.5482436
    Electron density         0.0000000     0.0000000    -1.0322105
    Field gradient           0.0000000     0.0000000     1.5482436
    Field gradient           0.0000000     0.0000000    -1.0322105
    Potential                0.0000000     0.0000000     1.5482436
    Potential                0.0000000     0.0000000    -1.0322105
    --------------------------------------------------------------
 @CHECKOUT-I, Total execution time (CPU/WALL):        1.30/       1.34 seconds.
--executable xvprop finished with status     0 in        1.36 seconds (walltime).
 --invoking executable--
/nfs/workspaces/public/cfour_mpi/bin/xvscf
  There are  218 functions in the AO basis.

  There are 4 irreducible representations.

       Irrep        # of functions
         1                 86
         2                 52
         3                 52
         4                 28


  Parameters for SCF calculation: 
        SCF reference function:  RHF  
  Maximum number of iterations:  150
     Full symmetry point group: CXv 
     Computational point group: C2v 
        Initial density matrix: MOREAD                 
     SCF convergence tolerance: 10**(-10)
  DIIS convergence acceleration:  ON
          Latest start for DIIS:   8
                     DIIS order:   6

  Memory information:    2523578 words required.
  Fock matrices are constructed from AO integral file.
 @GETMEM-I,  Allocated      19 MB of main memory.
  Initialization and symmetry analysis required      0.001 seconds.

  Adding electric field perturbation to one-electron Hamiltonian.
  Field direction     : Z
  Field strength      : -0.0002000 a.u.

  @INITGES-I, Occupancies from core Hamiltonian:

          Alpha population by irrep:   5    1    1    0
           Beta population by irrep:   5    1    1    0


 total no. of electrons in initial guess :  0.000000000000000E+000
  --------------------------------------------------------------------
  Iteration         Total Energy            Largest Density Difference
  --------------------------------------------------------------------
       0            18.601583203919553              0.0000000000D+00
   current occupation vector 
     5  1  1  0
     5  1  1  0
       1           -93.056219321206527              0.1771669930D+02
   current occupation vector 
     5  1  1  0
     5  1  1  0
       2           -98.383123799452022              0.1771367881D+02
   current occupation vector 
     5  1  1  0
     5  1  1  0
       3          -103.409947239715109              0.6848439624D+01
   current occupation vector 
     5  1  1  0
     5  1  1  0
       4           -98.871037420977729              0.6840945962D+01
   current occupation vector 
     5  1  1  0
     5  1  1  0
       5          -101.474104944477801              0.6342827932D+01
   current occupation vector 
     5  1  1  0
     5  1  1  0
       6           -97.387585260413942              0.6325821365D+01
   current occupation vector 
     5  1  1  0
     5  1  1  0
       7          -101.465115075584492              0.6479073704D+01
   current occupation vector 
     5  1  1  0
     5  1  1  0
       8           -97.296910172056499              0.6478755743D+01
   current occupation vector 
     5  1  1  0
     5  1  1  0
       9          -108.457172821476206              0.4926357743D+01
   current occupation vector 
     5  1  1  0
     5  1  1  0
      10          -110.449023689137078              0.1059485953D+01
   current occupation vector 
     5  1  1  0
     5  1  1  0
      11          -112.462117595718581              0.1205953602D+01
   current occupation vector 
     5  1  1  0
     5  1  1  0
      12          -112.678894880329153              0.4800594750D+00
   current occupation vector 
     5  1  1  0
     5  1  1  0
      13          -112.680911841456521              0.6826747755D-01
   current occupation vector 
     5  1  1  0
     5  1  1  0
      14          -112.681265881101780              0.2616649734D-01
   current occupation vector 
     5  1  1  0
     5  1  1  0
      15          -112.681293724100243              0.9023636360D-02
   current occupation vector 
     5  1  1  0
     5  1  1  0
      16          -112.681294189820903              0.9175940522D-03
   current occupation vector 
     5  1  1  0
     5  1  1  0
      17          -112.681294197671775              0.1293947326D-03
   current occupation vector 
     5  1  1  0
     5  1  1  0
      18          -112.681294198317744              0.4125341652D-04
   current occupation vector 
     5  1  1  0
     5  1  1  0
      19          -112.681294198416936              0.1722280354D-04
   current occupation vector 
     5  1  1  0
     5  1  1  0
      20          -112.681294198432056              0.9085821248D-05
   current occupation vector 
     5  1  1  0
     5  1  1  0
      21          -112.681294198430095              0.3239105382D-06
   current occupation vector 
     5  1  1  0
     5  1  1  0
      22          -112.681294198431459              0.1052606267D-06
   current occupation vector 
     5  1  1  0
     5  1  1  0
      23          -112.681294198431345              0.1484720880D-07
   current occupation vector 
     5  1  1  0
     5  1  1  0
      24          -112.681294198431317              0.5210396781D-08
   current occupation vector 
     5  1  1  0
     5  1  1  0
      25          -112.681294198432283              0.4692406463D-09
   current occupation vector 
     5  1  1  0
     5  1  1  0
      26          -112.681294198431573              0.2209223915D-09
   current occupation vector 
     5  1  1  0
     5  1  1  0
      27          -112.681294198430493              0.1125233240D-09
   current occupation vector 
     5  1  1  0
     5  1  1  0
      28          -112.681294198431260              0.1242044245D-09
   current occupation vector 
     5  1  1  0
     5  1  1  0

  SCF has converged.

 Density matrix saved to file den.dat
 total electron number:   14.0000000000000     
     E(SCF)=      -112.681294198431743              0.6266587249D-10

  Eigenvector printing suppressed.

 @PUTMOS-I, Writing converged MOs to NEWMOS. 
 @PUTMOS-I, Symmetry   1 Full Blocks 21 Partial Blocksize   2
 @PUTMOS-I, Symmetry   2 Full Blocks 13 Partial Blocksize   0
 @PUTMOS-I, Symmetry   3 Full Blocks 13 Partial Blocksize   0
 @PUTMOS-I, Symmetry   4 Full Blocks  7 Partial Blocksize   0
 @PUTFOCK-I, Writing converged Fock matrix to NEWFOCK. 
 @PUTFOCK-I, Symmetry   1 Full Blocks 21 Partial Blocksize   2
 @PUTFOCK-I, Symmetry   2 Full Blocks 13 Partial Blocksize   0
 @PUTFOCK-I, Symmetry   3 Full Blocks 13 Partial Blocksize   0
 @PUTFOCK-I, Symmetry   4 Full Blocks  7 Partial Blocksize   0


 
  ORBITAL EIGENVALUES (ALPHA)  (1H = 27.2113834 eV)

       MO #        E(hartree)               E(eV)           FULLSYM    COMPSYM
       ----   --------------------   --------------------   -------   ---------
    1     1         -20.6631756473        -562.2735948013     SG+        A1 (1)
    2     2         -11.4572288870        -311.7670479449     SG+        A1 (1)
    3     3          -1.3771332733         -37.4737014924     SG+        A1 (1)
    4     4          -0.7930512859         -21.5800225959     SG+        A1 (1)
    5     5          -0.5641812734         -15.3521529371     SG+        A1 (1)
    6    87          -0.5539722997         -15.0743526411      PI        B1 (2)
    7   139          -0.5539722997         -15.0743526411      PI        B2 (3)
  +++++++++++++++++++++++++++++++++++++++++++++++++++++++++++++++++++++++++++++
    8    88           0.0389390397           1.0595851377      PI        B1 (2)
    9   140           0.0389390397           1.0595851377      PI        B2 (3)
   10     6           0.0634803981           1.7273894522     SG+        A1 (1)
   11     7           0.0689396543           1.8759433653     SG+        A1 (1)
   12    89           0.0927750845           2.5245383943      PI        B1 (2)
   13   141           0.0927750845           2.5245383943      PI        B2 (3)
   14     8           0.1572396613           4.2787087094     SG+        A1 (1)
   15    90           0.1716012904           4.6695085050      PI        B1 (2)
   16   142           0.1716012904           4.6695085050      PI        B2 (3)
   17   191           0.2255767017           6.1382541152      DE        A2 (4)
   18     9           0.2255767017           6.1382541152      DE        A1 (1)
   19    10           0.2262045679           6.1553392232     SG+        A1 (1)
   20    91           0.2992353423           8.1426076248      PI        B1 (2)
   21   143           0.2992353423           8.1426076248      PI        B2 (3)
   22    11           0.2993366637           8.1453647212     SG+        A1 (1)
   23    12           0.3734510124          10.1621186805     SG+        A1 (1)
   24    92           0.3978159892          10.8251234052      PI        B1 (2)
   25   144           0.3978159892          10.8251234052      PI        B2 (3)
   26    13           0.5080375104          13.8244034760     SG+        A1 (1)
   27    14           0.5171940391          14.0735652910     SG+        A1 (1)
   28    15           0.5457937049          14.8518017605      DE        A1 (1)
   29   192           0.5457937049          14.8518017605      DE        A2 (4)
   30    93           0.6257181395          17.0266561953      PI        B1 (2)
   31   145           0.6257181395          17.0266561953      PI        B2 (3)
   32    94           0.7414006608          20.1745376334      PH        B1 (2)
   33   146           0.7414006608          20.1745376334      PH        B2 (3)
   34    16           0.7433903422          20.2286796177     SG+        A1 (1)
   35   193           0.7545251446          20.5316729946      DE        A2 (4)
   36    17           0.7545251446          20.5316729946      DE        A1 (1)
   37    95           0.7960277816          21.6610171628      PI        B1 (2)
   38   147           0.7960277816          21.6610171628      PI        B2 (3)
   39    18           0.8251081237          22.4523335012     SG+        A1 (1)
   40    19           0.8676169057          23.6090562654     SG+        A1 (1)
   41    20           0.8765035942          23.8508753531      DE        A1 (1)
   42   194           0.8765035942          23.8508753531      DE        A2 (4)
   43    96           0.8970796320          24.4107778055      PI        B1 (2)
   44   148           0.8970796320          24.4107778055      PI        B2 (3)
   45    97           1.0364319515          28.2027471995      PI        B1 (2)
   46   149           1.0364319515          28.2027471995      PI        B2 (3)
   47    21           1.1229154485          30.5560827936     SG+        A1 (1)
   48    22           1.4080268840          38.3143593793     SG+        A1 (1)
   49   150           1.4311112394          38.9425166239      PH        B2 (3)
   50    98           1.4311112394          38.9425166239      PH        B1 (2)
   51    23           1.5574136437          42.3793797720      DE        A1 (1)
   52   195           1.5574136437          42.3793797720      DE        A2 (4)
   53   151           1.5633854717          42.5418814734      PI        B2 (3)
   54    99           1.5633854717          42.5418814734      PI        B1 (2)
   55    24           1.6408084679          44.6486683052     SG+        A1 (1)
   56   100           1.6582316107          45.1227761255      PI        B1 (2)
   57   152           1.6582316107          45.1227761255      PI        B2 (3)
   58    25           1.7253716281          46.9497488805      DE        A1 (1)
   59   196           1.7253716281          46.9497488806      DE        A2 (4)
   60    26           1.8655477252          50.7641344019     SG+        A1 (1)
   61    27           2.0207196418          54.9865769170     SG+        A1 (1)
   62   101           2.0746224986          56.4533482210      PI        B1 (2)
   63   153           2.0746224986          56.4533482210      PI        B2 (3)
   64    28           2.0873219473          56.7989177872      PI        A1 (1)
   65   197           2.0873219473          56.7989177872      PI        A2 (4)
   66   198           2.1550047711          58.6406610555      DE        A2 (4)
   67    29           2.1550047711          58.6406610555      DE        A1 (1)
   68   154           2.2293387652          60.6633918672      PH        B2 (3)
   69   102           2.2293387652          60.6633918672      PH        B1 (2)
   70   103           2.2723369721          61.8334325605      PI        B1 (2)
   71   155           2.2723369721          61.8334325605      PI        B2 (3)
   72   156           2.2793359047          62.0238832015      PH        B2 (3)
   73   104           2.2793359047          62.0238832015      PH        B1 (2)
   74    30           2.2810814511          62.0713819326     SG+        A1 (1)
   75   199           2.3225058857          63.1985981054      DE        A2 (4)
   76    31           2.3225058857          63.1985981054      DE        A1 (1)
   77    32           2.5000650871          68.0302296114     SG+        A1 (1)
   78   105           2.5322473705          68.9059540615      PI        B1 (2)
   79   157           2.5322473705          68.9059540615      PI        B2 (3)
   80    33           2.6396405916          71.8282721755     SG+        A1 (1)
   81   106           2.6649361812          72.5166001622      PI        B1 (2)
   82   158           2.6649361812          72.5166001622      PI        B2 (3)
   83    34           2.8083202173          76.4182781443      DE        A1 (1)
   84   200           2.8083202174          76.4182781445      DE        A2 (4)
   85    35           3.3053494986          89.9431324769     SG+        A1 (1)
   86   107           3.6011106978          97.9912038628      PI        B1 (2)
   87   159           3.6011106978          97.9912038629      PI        B2 (3)
   88   201           3.7014650334         100.7219841664      PI        A2 (4)
   89    36           3.7014650334         100.7219841664      PI        A1 (1)
   90    37           3.8993352283         106.1063059033     SG+        A1 (1)
   91   160           4.0423008182         109.9965973823      PH        B2 (3)
   92   108           4.0423008182         109.9965973823      PH        B1 (2)
   93   161           4.1268244664         112.2966027803      PH        B2 (3)
   94   109           4.1268244664         112.2966027803      PH        B1 (2)
   95   110           4.1733155746         113.5616901485      PI        B1 (2)
   96   162           4.1733155746         113.5616901485      PI        B2 (3)
   97    38           4.2130470615         114.6428388719     SG+        A1 (1)
   98    39           4.2171054926         114.7532743982      DE        A1 (1)
   99   202           4.2171054926         114.7532743982      DE        A2 (4)
  100    40           4.2872674767         116.6624790475      DE        A1 (1)
  101   203           4.2872674767         116.6624790476      DE        A2 (4)
  102    41           4.3894076590         119.4418547073     SG+        A1 (1)
  103   111           4.7639800050         129.6344864267      PI        B1 (2)
  104   163           4.7639800050         129.6344864267      PI        B2 (3)
  105    42           4.9226675325         133.9525935767      DE        A1 (1)
  106   204           4.9226675325         133.9525935770      DE        A2 (4)
  107    43           5.0096219675         136.3187440479     SG+        A1 (1)
  108   112           5.0326727968         136.9459889997      PI        B1 (2)
  109   164           5.0326727968         136.9459889997      PI        B2 (3)
  110    44           5.3685078740         146.0845260457     SG+        A1 (1)
  111   113           5.5232684946         150.2957766274      PI        B1 (2)
  112   165           5.5232684946         150.2957766276      PI        B2 (3)
  113   205           5.8635770730         159.5560438280      PI        A2 (4)
  114    45           5.8635770730         159.5560438280      PI        A1 (1)
  115   114           5.9680890967         162.3999605752      PH        B1 (2)
  116   166           5.9680890967         162.3999605752      PH        B2 (3)
  117    46           6.1899911755         168.4382231204     SG+        A1 (1)
  118    47           6.2067750451         168.8949354302      DE        A1 (1)
  119   206           6.2067750451         168.8949354302      DE        A2 (4)
  120   115           6.2348632984         169.6592556593      PI        B1 (2)
  121   167           6.2348632984         169.6592556593      PI        B2 (3)
  122    48           6.3879674145         173.8254304630     SG+        A1 (1)
  123   168           6.3985959644         174.1146480088      PH        B2 (3)
  124   116           6.3985959644         174.1146480088      PH        B1 (2)
  125    49           6.5299603546         177.6892547956      DE        A1 (1)
  126   207           6.5299603546         177.6892547957      DE        A2 (4)
  127   208           6.6369010511         180.5992590884      DE        A2 (4)
  128    50           6.6369010511         180.5992590884      DE        A1 (1)
  129   117           7.0340767178         191.4069584338      PI        B1 (2)
  130   169           7.0340767178         191.4069584338      PI        B2 (3)
  131    51           7.3407673071         199.7524336432     SG+        A1 (1)
  132   118           7.7847343375         211.8333907248      PI        B1 (2)
  133   170           7.7847343375         211.8333907249      PI        B2 (3)
  134    52           8.2951109444         225.7214442545     SG+        A1 (1)
  135    53           9.8517007619         268.0784065746     SG+        A1 (1)
  136   119          10.0101610708         272.3903307937      PI        B1 (2)
  137   171          10.0101610708         272.3903307938      PI        B2 (3)
  138   209          10.6227650718         289.0601331370      PI        A2 (4)
  139    54          10.6227650718         289.0601331370      PI        A1 (1)
  140   172          10.7768545986         293.2531223278      PH        B2 (3)
  141   120          10.7768545986         293.2531223278      PH        B1 (2)
  142    55          10.8015678981         293.9256053976     SG+        A1 (1)
  143    56          11.0108124883         299.6194401656      DE        A1 (1)
  144   210          11.0108124883         299.6194401657      DE        A2 (4)
  145   173          11.1084563398         302.2764644445      PI        B2 (3)
  146   121          11.1084563398         302.2764644445      PI        B1 (2)
  147    57          11.4233737872         310.8458038454     SG+        A1 (1)
  148   174          11.8657795402         322.8842764084      PH        B2 (3)
  149   122          11.8657795402         322.8842764084      PH        B1 (2)
  150    58          12.0850324119         328.8504503610      DE        A1 (1)
  151   211          12.0850324119         328.8504503615      DE        A2 (4)
  152   123          12.6065461982         343.0415619478      PI        B1 (2)
  153   175          12.6065461982         343.0415619478      PI        B2 (3)
  154    59          12.7699777928         347.4887617282      DE        A1 (1)
  155   212          12.7699777928         347.4887617283      DE        A2 (4)
  156    60          12.9342450383         351.9587007278     SG+        A1 (1)
  157   176          13.1834429885         358.7397216922      PI        B2 (3)
  158   124          13.1834429885         358.7397216922      PI        B1 (2)
  159    61          14.1197699536         384.2184737278     SG+        A1 (1)
  160    62          17.5754865090         478.2533018389     SG+        A1 (1)
  161   125          18.9475298568         515.5884994158      PI        B1 (2)
  162   177          18.9475298568         515.5884994160      PI        B2 (3)
  163    63          20.3921437386         554.8984416178     SG+        A1 (1)
  164    64          26.3516276916         717.0642443313      DE        A1 (1)
  165   213          26.3516276916         717.0642443313      DE        A2 (4)
  166   126          26.7730500037         728.5317284394      PI        B1 (2)
  167   178          26.7730500037         728.5317284394      PI        B2 (3)
  168    65          27.3284649025         743.6453361950     SG+        A1 (1)
  169   127          33.6589507745         915.9066143660      PI        B1 (2)
  170   179          33.6589507745         915.9066143661      PI        B2 (3)
  171    66          34.4192752966         936.5960964454     SG+        A1 (1)
  172    67          36.1009913137         982.3579157579     SG+        A1 (1)
  173    68          47.0818090448        1281.1611570826      DE        A1 (1)
  174   214          47.0818090448        1281.1611570826      DE        A2 (4)
  175   180          47.2906360795        1286.8436295881      PI        B2 (3)
  176   128          47.2906360795        1286.8436295881      PI        B1 (2)
  177    69          47.8777982587        1302.8211247660     SG+        A1 (1)
  178    70          63.9404091909        1739.9069892453     SG+        A1 (1)
  179   129          66.4842936314        1809.1296040826      PI        B1 (2)
  180   181          66.4842936314        1809.1296040827      PI        B2 (3)
  181    71          67.5251630745        1837.4531015670     SG+        A1 (1)
  182   130          98.5744657137        2682.3475799853      PH        B1 (2)
  183   182          98.5744657137        2682.3475799853      PH        B2 (3)
  184    72          98.5883355023        2682.7249961214      DE        A1 (1)
  185   215          98.5883355023        2682.7249961215      DE        A2 (4)
  186   183          98.6124025385        2683.3798934692      PI        B2 (3)
  187   131          98.6124025385        2683.3798934692      PI        B1 (2)
  188    73          98.6337617735        2683.9611078018     SG+        A1 (1)
  189   132         103.2880487918        2810.6106963103      PH        B1 (2)
  190   184         103.2880487918        2810.6106963103      PH        B2 (3)
  191   216         103.3078148305        2811.1485575688      DE        A2 (4)
  192    74         103.3078148305        2811.1485575689      DE        A1 (1)
  193   185         103.3520014327        2812.3509361431      PI        B2 (3)
  194   133         103.3520014327        2812.3509361432      PI        B1 (2)
  195    75         103.3576211181        2812.5038555556     SG+        A1 (1)
  196   217         115.0407619845        3130.4182809887      DE        A2 (4)
  197    76         115.0407619845        3130.4182809888      DE        A1 (1)
  198   134         115.2433463922        3135.9308829772      PI        B1 (2)
  199   186         115.2433463922        3135.9308829772      PI        B2 (3)
  200    77         115.5364397275        3143.9063580946     SG+        A1 (1)
  201   135         116.9282829949        3181.7803388789      PI        B1 (2)
  202   187         116.9282829949        3181.7803388790      PI        B2 (3)
  203    78         117.5504234770        3198.7096420657     SG+        A1 (1)
  204    79         122.2853992766        3327.5548839363     SG+        A1 (1)
  205    80         198.5533597373        5402.9115971702      DE        A1 (1)
  206   218         198.5533597373        5402.9115971703      DE        A2 (4)
  207   188         198.6653018146        5405.9576959527      PI        B2 (3)
  208   136         198.6653018146        5405.9576959530      PI        B1 (2)
  209    81         198.9734350698        5414.3424281006     SG+        A1 (1)
  210    82         216.4678862424        5890.3906463301     SG+        A1 (1)
  211   137         224.9410233267        6120.9564281322      PI        B1 (2)
  212   189         224.9410233267        6120.9564281322      PI        B2 (3)
  213    83         225.7546432800        6143.0961526226     SG+        A1 (1)
  214   190         395.4013760845       10759.4184415239      PI        B2 (3)
  215   138         395.4013760846       10759.4184415243      PI        B1 (2)
  216    84         395.9293874245       10773.7863605352     SG+        A1 (1)
  217    85         508.9084282664       13848.1023570494     SG+        A1 (1)
  218    86         895.3017680988       24362.3996704352     SG+        A1 (1)


  VSCF finished.

 @CHECKOUT-I, Total execution time (CPU/WALL):       51.75/      10.57 seconds.
--executable xvscf finished with status     0 in       10.60 seconds (walltime).
 --invoking executable--
/nfs/workspaces/public/cfour_mpi/bin/xvtran
 @GETMEM-I,  Allocated    3814 MB of main memory.
  Full RHF integral transformation
  Transformation of IIII integrals :
  1 pass through the AO integral file was required.
     4506327 AO integrals were read.
     8760993 MO integrals were written to HF2.
  Transformation of IIJJ integrals :
  1 pass through the AO integral file was required.
    10224506 AO integrals were read.
    14538691 MO integrals were written to HF2.
  Transformation of IJIJ integrals :
  1 pass through the AO integral file was required.
    19416400 AO integrals were read.
    27219378 MO integrals were written to HF2.
  Transformation of IJKL integrals :
  1 pass through the AO integral file was required.
    14375300 AO integrals were read.
    18403367 MO integrals were written to HF2.
  Summary of active molecular orbitals: 
------------------------------------------------------------------------
 
  Index      Eigenvalue    Symmetry    Index      Eigenvalue    Symmetry
------------------------------------------------------------------------
     1       -20.6631756        1       110         4.1268245        2
     2       -11.4572289        1       111         4.1733156        2
     3        -1.3771333        1       112         4.7639800        2
     4        -0.7930513        1       113         5.0326728        2
     5        -0.5641813        1       114         5.5232685        2
     6        -0.5539723        2       115         5.9680891        2
     7        -0.5539723        3       116         6.2348633        2
     8         0.0634804        1       117         6.3985960        2
     9         0.0689397        1       118         7.0340767        2
    10         0.1572397        1       119         7.7847343        2
    11         0.2255767        1       120        10.0101611        2
    12         0.2262046        1       121        10.7768546        2
    13         0.2993367        1       122        11.1084563        2
    14         0.3734510        1       123        11.8657795        2
    15         0.5080375        1       124        12.6065462        2
    16         0.5171940        1       125        13.1834430        2
    17         0.5457937        1       126        18.9475299        2
    18         0.7433903        1       127        26.7730500        2
    19         0.7545251        1       128        33.6589508        2
    20         0.8251081        1       129        47.2906361        2
    21         0.8676169        1       130        66.4842936        2
    22         0.8765036        1       131        98.5744657        2
    23         1.1229154        1       132        98.6124025        2
    24         1.4080269        1       133       103.2880488        2
    25         1.5574136        1       134       103.3520014        2
    26         1.6408085        1       135       115.2433464        2
    27         1.7253716        1       136       116.9282830        2
    28         1.8655477        1       137       198.6653018        2
    29         2.0207196        1       138       224.9410233        2
    30         2.0873219        1       139       395.4013761        2
    31         2.1550048        1       140         0.0389390        3
    32         2.2810815        1       141         0.0927751        3
    33         2.3225059        1       142         0.1716013        3
    34         2.5000651        1       143         0.2992353        3
    35         2.6396406        1       144         0.3978160        3
    36         2.8083202        1       145         0.6257181        3
    37         3.3053495        1       146         0.7414007        3
    38         3.7014650        1       147         0.7960278        3
    39         3.8993352        1       148         0.8970796        3
    40         4.2130471        1       149         1.0364320        3
    41         4.2171055        1       150         1.4311112        3
    42         4.2872675        1       151         1.5633855        3
    43         4.3894077        1       152         1.6582316        3
    44         4.9226675        1       153         2.0746225        3
    45         5.0096220        1       154         2.2293388        3
    46         5.3685079        1       155         2.2723370        3
    47         5.8635771        1       156         2.2793359        3
    48         6.1899912        1       157         2.5322474        3
    49         6.2067750        1       158         2.6649362        3
    50         6.3879674        1       159         3.6011107        3
    51         6.5299604        1       160         4.0423008        3
    52         6.6369011        1       161         4.1268245        3
    53         7.3407673        1       162         4.1733156        3
    54         8.2951109        1       163         4.7639800        3
    55         9.8517008        1       164         5.0326728        3
    56        10.6227651        1       165         5.5232685        3
    57        10.8015679        1       166         5.9680891        3
    58        11.0108125        1       167         6.2348633        3
    59        11.4233738        1       168         6.3985960        3
    60        12.0850324        1       169         7.0340767        3
    61        12.7699778        1       170         7.7847343        3
    62        12.9342450        1       171        10.0101611        3
    63        14.1197700        1       172        10.7768546        3
    64        17.5754865        1       173        11.1084563        3
    65        20.3921437        1       174        11.8657795        3
    66        26.3516277        1       175        12.6065462        3
    67        27.3284649        1       176        13.1834430        3
    68        34.4192753        1       177        18.9475299        3
    69        36.1009913        1       178        26.7730500        3
    70        47.0818090        1       179        33.6589508        3
    71        47.8777983        1       180        47.2906361        3
    72        63.9404092        1       181        66.4842936        3
    73        67.5251631        1       182        98.5744657        3
    74        98.5883355        1       183        98.6124025        3
    75        98.6337618        1       184       103.2880488        3
    76       103.3078148        1       185       103.3520014        3
    77       103.3576211        1       186       115.2433464        3
    78       115.0407620        1       187       116.9282830        3
    79       115.5364397        1       188       198.6653018        3
    80       117.5504235        1       189       224.9410233        3
    81       122.2853993        1       190       395.4013761        3
    82       198.5533597        1       191         0.2255767        4
    83       198.9734351        1       192         0.5457937        4
    84       216.4678862        1       193         0.7545251        4
    85       225.7546433        1       194         0.8765036        4
    86       395.9293874        1       195         1.5574136        4
    87       508.9084283        1       196         1.7253716        4
    88       895.3017681        1       197         2.0873219        4
    89         0.0389390        2       198         2.1550048        4
    90         0.0927751        2       199         2.3225059        4
    91         0.1716013        2       200         2.8083202        4
    92         0.2992353        2       201         3.7014650        4
    93         0.3978160        2       202         4.2171055        4
    94         0.6257181        2       203         4.2872675        4
    95         0.7414007        2       204         4.9226675        4
    96         0.7960278        2       205         5.8635771        4
    97         0.8970796        2       206         6.2067750        4
    98         1.0364320        2       207         6.5299604        4
    99         1.4311112        2       208         6.6369011        4
   100         1.5633855        2       209        10.6227651        4
   101         1.6582316        2       210        11.0108125        4
   102         2.0746225        2       211        12.0850324        4
   103         2.2293388        2       212        12.7699778        4
   104         2.2723370        2       213        26.3516277        4
   105         2.2793359        2       214        47.0818090        4
   106         2.5322474        2       215        98.5883355        4
   107         2.6649362        2       216       103.3078148        4
   108         3.6011107        2       217       115.0407620        4
   109         4.0423008        2       218       198.5533597        4
------------------------------------------------------------------------
  -20.6631756473389       -11.4572288869690       -1.37713327329206     
 -0.793051285877403      -0.564181273383186      -0.553972299737517     
 -0.553972299737501       6.348039813922726E-002  6.893965432329793E-002
  0.157239661302134       0.225576701669400       0.226204567873092     
  0.299336663683041       0.373451012436210       0.508037510361168     
  0.517194039132039       0.545793704868096       0.743390342207255     
  0.754525144596488       0.825108123726481       0.867616905701745     
  0.876503594194431        1.12291544845025        1.40802688404808     
   1.55741364373296        1.64080846787168        1.72537162812759     
   1.86554772521915        2.02071964180375        2.08732194729911     
   2.15500477111026        2.28108145110246        2.32250588573254     
   2.50006508714961        2.63964059157322        2.80832021734994     
   3.30534949858234        3.70146503343072        3.89933522833138     
   4.21304706147011        4.21710549262835        4.28726747672467     
   4.38940765897644        4.92266753246788        5.00962196754424     
   5.36850787401418        5.86357707296967        6.18999117554664     
   6.20677504511731        6.38796741451097        6.52996035459338     
   6.63690105106454        7.34076730708382        8.29511094443221     
   9.85170076191580        10.6227650718038        10.8015678981449     
   11.0108124883347        11.4233737872146        12.0850324118749     
[...]
 Convergence information after    12 iterations: 
 Largest element of residual vector : -0.27498611E-05.
 Largest element of DIIS residual   : -0.16250770E-05.
 Convergence information after    13 iterations: 
 Largest element of residual vector : -0.12978388E-05.
 Largest element of DIIS residual   : -0.63365209E-06.
 Convergence information after    14 iterations: 
 Largest element of residual vector : -0.75366398E-06.
 Largest element of DIIS residual   : -0.41459428E-06.
 Convergence information after    15 iterations: 
 Largest element of residual vector : -0.28730936E-06.
 Largest element of DIIS residual   : -0.17632463E-06.
 Convergence information after    16 iterations: 
 Largest element of residual vector : -0.17117811E-06.
 Largest element of DIIS residual   : -0.73611607E-07.
 Perturbed amplitude equations converged in    16 iterations.
  Dominant contributions to perturbed wavefunction:
    7    7  140   28  -0.2413964216 ABAB
    7    7   28  140  -0.2413964216 ABAB
    7    7  140   39  -0.2101054543 ABAB
    7    7   39  140  -0.2101054543 ABAB
    7    7  140   54  -0.1665340008 ABAB
    7    7   54  140  -0.1665340008 ABAB
    7    7  141   28  -0.1571874677 ABAB
    7    7   28  141  -0.1571874677 ABAB
    7    6   28   89  -0.1544143903 ABAB
    6    7   89   28  -0.1544143903 ABAB
    7    7  140   20  -0.1440596466 ABAB
    7    7   20  140  -0.1440596466 ABAB
    7    7  141   39  -0.1416369679 ABAB
    7    7   39  141  -0.1416369679 ABAB
    7    7  140   45   0.1354974820 ABAB
    7    7   45  140   0.1354974820 ABAB
    7    6   39   89  -0.1348885694 ABAB
    6    7   89   39  -0.1348885694 ABAB
    7    7  140   21  -0.1297061129 ABAB
    7    7   21  140  -0.1297061129 ABAB
  norm of converged amps    1.95579059981311     
 Starting iterative solution of the perturbed Lambda equations.
 The DIIS procedure is used to accelerate convergence.
 Convergence criterion is 10**(-7).
 Maximum number of iterations is 100.
 Convergence information after     1 iterations: 
 Largest element of residual vector :  0.62732011E-01.
 Largest element of DIIS residual   :  0.62732011E-01.
 Convergence information after     2 iterations: 
 Largest element of residual vector : -0.12362926E-01.
 Largest element of DIIS residual   :  0.81008869E-02.
 Convergence information after     3 iterations: 
 Largest element of residual vector :  0.52906242E-02.
 Largest element of DIIS residual   :  0.47829169E-02.
 Convergence information after     4 iterations: 
 Largest element of residual vector :  0.33703104E-02.
 Largest element of DIIS residual   :  0.29303273E-02.
 Convergence information after     5 iterations: 
 Largest element of residual vector :  0.23930578E-02.
 Largest element of DIIS residual   :  0.14032549E-02.
 Convergence information after     6 iterations: 
 Largest element of residual vector :  0.95994369E-03.
 Largest element of DIIS residual   :  0.38856803E-03.
 Convergence information after     7 iterations: 
 Largest element of residual vector :  0.37027257E-03.
 Largest element of DIIS residual   : -0.13105269E-03.
 Convergence information after     8 iterations: 
 Largest element of residual vector :  0.84312888E-04.
 Largest element of DIIS residual   : -0.57297796E-04.
 Convergence information after     9 iterations: 
 Largest element of residual vector :  0.34783478E-04.
 Largest element of DIIS residual   : -0.11199352E-04.
 Convergence information after    10 iterations: 
 Largest element of residual vector : -0.86141933E-05.
 Largest element of DIIS residual   : -0.57607612E-05.
 Convergence information after    11 iterations: 
 Largest element of residual vector : -0.32955015E-05.
 Largest element of DIIS residual   : -0.19801536E-05.
 Convergence information after    12 iterations: 
 Largest element of residual vector : -0.20196411E-05.
 Largest element of DIIS residual   : -0.15939645E-05.
 Convergence information after    13 iterations: 
 Largest element of residual vector : -0.11639755E-05.
 Largest element of DIIS residual   : -0.84421883E-06.
 Convergence information after    14 iterations: 
 Largest element of residual vector : -0.82745536E-06.
 Largest element of DIIS residual   : -0.59477710E-06.
 Convergence information after    15 iterations: 
 Largest element of residual vector : -0.41069774E-06.
 Largest element of DIIS residual   : -0.25357961E-06.
 Convergence information after    16 iterations: 
 Largest element of residual vector : -0.23069821E-06.
 Largest element of DIIS residual   : -0.97681807E-07.
 Perturbed Lambda equations converged in    16 iterations.
  Dominant contributions to perturbed wavefunction:
    7    7  140   28  -0.2193898066 ABAB
    7    7   28  140  -0.2193898066 ABAB
    7    7  140   39  -0.1887755842 ABAB
    7    7   39  140  -0.1887755842 ABAB
    7    7  140   54  -0.1527606374 ABAB
    7    7   54  140  -0.1527606374 ABAB
    7    7  141   28  -0.1415562867 ABAB
    7    7   28  141  -0.1415562867 ABAB
    7    6   28   89  -0.1378469939 ABAB
    6    7   89   28  -0.1378469939 ABAB
    7    7  140   20  -0.1283630841 ABAB
    7    7   20  140  -0.1283630841 ABAB
    7    7  141   39  -0.1261213469 ABAB
    7    7   39  141  -0.1261213469 ABAB
    7    7  140   45   0.1212596420 ABAB
    7    7   45  140   0.1212596420 ABAB
    7    6   39   89  -0.1190842474 ABAB
    6    7   89   39  -0.1190842474 ABAB
    7    7  140   21  -0.1174159097 ABAB
    7    7   21  140  -0.1174159097 ABAB
        The DBOC first-order density matrix is being calculated 
             (Symmetry block 3, perturbation   2)
 term   4.28285702979017     
 final tnorm  0.852327986687106     
  norm contr. I: |<0|L dT/dx|0>|^2   0.000000000000000E+000
  norm contr. II: <0|[nabla(1+L)e-T][nabla e^T]|0>   4.28285702979017     
  total norm contribution   4.28285702979017     
 oo  7.318056194351941E-003
 vv  -28.5337926423360     
 vo  5.972834692688207E-002
  Correlated perturbed 1-el contribution to DBOC  -28.4667462392147       cm**-1
  SUM_I |dc_I/dx|^2 contribution to DBOC   14.3278646025744       cm**-1
 
 
  The total diagonal Born-Oppenheimer correction (DBOC) is:      0.0038676952 a.u.
  The total diagonal Born-Oppenheimer correction (DBOC) is:        848.860983 cm-1
 
 Total CC energy including DBOC  -113.200152312372     
 First-order density matrix is being calculated  (Symmetry block 3, perturbation   2)
 Calculation of the contributions of <pq||rs> to dI(i,j)/dx required   3.0 seconds.
 Calculation of the contributions of <pq||rs> to dI(a,b)/dx required  15.3 seconds.
 Calculation of the contributions of <pq||rs> to dI(i,a)/dx required   9.5 seconds.
 First-order Z-vector equations are solved for 1 perturbation.
 Convergence reached after  19 iterations.
        U*G(pq,rs) contribution is being calculated
             (Symmetry block 3, perturbation   2)

 CCSD contribution to force constants 

        0.0000000000        0.0000000000        0.0000000000
        0.0000000000        0.0000000000        0.0000000000
        0.0000000000        0.0000000000        0.0000000000
        0.0000000000        0.0000000000        0.0000000000
        0.0000000000        0.0000000000        0.0000000000
        0.0000000000        0.0000000000        0.0000000000
        0.0000000000        0.0000000000        0.0000000000
        0.0000000000        0.0000000000        0.0000000000
        0.0000000000        0.0000000000        0.0000000000
        0.0000000000        0.0000000000        0.0000000000
        0.0000000000        0.0000000000        0.0000000000
        0.0000000000        0.8634786166       -0.8634786166

 CCSD contribution to dipole derivatives 

        0.0000000000        0.0000000000        0.0000000000
        0.0000000000        0.0000000000        0.0000000000
        0.0000000000        0.0000000000        0.0000000000
        0.0000000000        0.0000000000       -0.0533806466
        0.0000000000        0.0000000000        0.0000000000
        0.0000000000        0.0000000000        0.0000000000
 @CHECKOUT-I, Total execution time (CPU/WALL):     1206.40/     487.24 seconds.
--executable xsdcc finished with status     0 in      487.47 seconds (walltime).
 --invoking executable--
/nfs/workspaces/public/cfour_mpi/bin/xanti
 @GETMEM-I,  Allocated    3814 MB of main memory.
 CCSD MO derivative gammas will be sorted to Mulliken order.
 @CHECKOUT-I, Total execution time (CPU/WALL):       11.89/      21.20 seconds.
--executable xanti finished with status     0 in       21.38 seconds (walltime).
 --invoking executable--
/nfs/workspaces/public/cfour_mpi/bin/xbcktrn
 @GETMEM-I,  Allocated    3814 MB of main memory.
 CCSD MO derivative gammas will be transformed to the AO basis.
 @CHECKOUT-I, Total execution time (CPU/WALL):       27.52/      16.08 seconds.
--executable xbcktrn finished with status     0 in       16.14 seconds (walltime).
 --invoking executable--
/nfs/workspaces/public/cfour_mpi/bin/xvdint
 @GETMEM-I,  Allocated    3814 MB of main memory.
 One- and two-electron integral derivatives are calculated
 for RHF-CC/MBPT hessians and dipole derivatives.
 Spherical gaussians are used.
  magnet F F
                    8722  records have been written to the Sort file.
  Total length of Sort file :             178609116  words.
 Evaluation of 2el integral derivatives

                      Two-electron integral gradient
                      ------------------------------

                         C #1 z     0.0000000000
                         O #2 z     0.0000000000


 C #1       0.0000000000           -0.1026662940            0.0000000000
 O #2       0.0000000000            0.1026662940            0.0000000000


 Evaluation of 2e integral derivatives required  341.85 seconds.
  contribution to Hessian
        0.0000000000        0.0000000000        0.0000000000
        0.0000000000       -0.1026662940        0.1026662940
 @CHECKOUT-I, Total execution time (CPU/WALL):      341.85/      69.07 seconds.
--executable xvdint finished with status     0 in       69.21 seconds (walltime).
 --invoking executable--
/nfs/workspaces/public/cfour_mpi/bin/xanti
 @GETMEM-I,  Allocated    3814 MB of main memory.
 CCSD MO gammas will be sorted to Mulliken order.
 @CHECKOUT-I, Total execution time (CPU/WALL):       14.56/      42.10 seconds.
--executable xanti finished with status     0 in       42.24 seconds (walltime).
 --invoking executable--
/nfs/workspaces/public/cfour_mpi/bin/xbcktrn
 @GETMEM-I,  Allocated    3814 MB of main memory.
 CCSD MO gammas will be transformed to the AO basis.
 @CHECKOUT-I, Total execution time (CPU/WALL):       49.01/      11.68 seconds.
--executable xbcktrn finished with status     0 in       11.75 seconds (walltime).
 --invoking executable--
/nfs/workspaces/public/cfour_mpi/bin/xvdint
 @GETMEM-I,  Allocated    3814 MB of main memory.
 One- and two-electron integral derivatives are calculated
 for RHF-CC/MBPT hessians and dipole derivatives.
 Spherical gaussians are used.
  magnet F F

                     Kinetic energy integral gradient
                     --------------------------------

                         C #1 z    -0.8878556635
                         O #2 z     0.8878556635


 C #1       0.0000000000            0.0000000000           -0.8878556635
 O #2       0.0000000000            0.0000000000            0.8878556635



                   Nuclear attraction integral gradient
                   ------------------------------------

                         C #1 z    17.8387860819
                         O #2 z   -17.8387860819


 C #1       0.0000000000            0.0000000000           17.8387860819
 O #2       0.0000000000            0.0000000000          -17.8387860819



                      Reorthonormalization gradient
                      -----------------------------

                         C #1 z     0.0000000000
                         O #2 z     0.0000000000


 C #1       0.0000000000            0.0000000000            0.0000000000
 O #2       0.0000000000            0.0000000000            0.0000000000



                     Kinetic energy integral Hessian
                     -------------------------------


           Symmetry 1

           C #1 z      O #2 z

 C #1 z    0.872349
 O #2 z   -0.872349    0.872349


           Symmetry 2

           C #1 x      O #2 x

 C #1 x   -0.862811
 O #2 x    0.862811   -0.862811


           Symmetry 3

           C #1 y      O #2 y

 C #1 y   -0.862811
 O #2 y    0.862811   -0.862811




           C #1 x      C #1 y      C #1 z      O #2 x      O #2 y      O #2 z

 C #1 x   -0.862811
 C #1 y    0.000000   -0.862811
 C #1 z    0.000000    0.000000    0.872349

 O #2 x    0.862811    0.000000    0.000000   -0.862811
 O #2 y    0.000000    0.862811    0.000000    0.000000   -0.862811
 O #2 z    0.000000    0.000000   -0.872349    0.000000    0.000000    0.872349




                   Nuclear attraction integral Hessian
                   -----------------------------------


           Symmetry 1

           C #1 z      O #2 z

 C #1 z  -11.032819
 O #2 z   11.032819  -11.032819


           Symmetry 2

           C #1 x      O #2 x

 C #1 x   11.985644
 O #2 x  -11.985644   11.985644


           Symmetry 3

           C #1 y      O #2 y

 C #1 y   11.985644
 O #2 y  -11.985644   11.985644




           C #1 x      C #1 y      C #1 z      O #2 x      O #2 y      O #2 z

 C #1 x   11.985644
 C #1 y    0.000000   11.985644
 C #1 z    0.000000    0.000000  -11.032819

 O #2 x  -11.985644    0.000000    0.000000   11.985644
 O #2 y    0.000000  -11.985644    0.000000    0.000000   11.985644
 O #2 z    0.000000    0.000000   11.032819    0.000000    0.000000  -11.032819




                Highest order reorthonormalization Hessian
                ------------------------------------------


           Symmetry 1

           C #1 z      O #2 z

 C #1 z    0.000000
 O #2 z    0.000000    0.000000


           Symmetry 2

           C #1 x      O #2 x

 C #1 x    0.000000
 O #2 x    0.000000    0.000000


           Symmetry 3

           C #1 y      O #2 y

 C #1 y    0.000000
 O #2 y    0.000000    0.000000




           C #1 x      C #1 y      C #1 z      O #2 x      O #2 y      O #2 z




                Electronic contributions to dipole moment
                -----------------------------------------

                               au             Debye

                    z     -0.79350163     -2.01688032

  Conversion factor used: 1 a.u. =   2.54174691 Debye 



   Electronic contributions to static part of dipole moment derivatives
   --------------------------------------------------------------------


                     Total dipole moment derivatives
                     -------------------------------


           Symmetry 1
                              Ez

               C #1 z    -5.62254735
               O #2 z    -8.37745265

           Symmetry 2
                              Ex

               C #1 x    -5.68810561
               O #2 x    -8.31189439

           Symmetry 3
                              Ey

               C #1 y    -5.68810561
               O #2 y    -8.31189439



                       Ex          Ey          Ez

      C #1    x   -5.688106    0.000000    0.000000
      C #1    y    0.000000   -5.688106    0.000000
      C #1    z    0.000000    0.000000   -5.622547

      O #2    x   -8.311894    0.000000    0.000000
      O #2    y    0.000000   -8.311894    0.000000
      O #2    z    0.000000    0.000000   -8.377453

 Evaluation of 1e integral derivatives required    1.58 seconds.
                    8815  records have been written to the Sort file.
  Total length of Sort file :             180513570  words.
 Evaluation of 2el integral derivatives

                      Two-electron integral gradient
                      ------------------------------

                         C #1 z    -9.0669026634
                         O #2 z     9.0669026634


 C #1       0.0000000000            0.0000000000           -9.0669026634
 O #2       0.0000000000            0.0000000000            9.0669026634


 Evaluation of 2e integral derivatives required  703.81 seconds.

                            Molecular gradient
                            ------------------

                         C #1 z     0.6754606579
                         O #2 z    -0.6754606579


 C #1       0.0000000000            0.0000000000            0.6754606579
 O #2       0.0000000000            0.0000000000           -0.6754606579


  Molecular gradient norm 0.955E+00

                            Molecular hessian
                            -----------------


           Symmetry 1

           C #1 z      O #2 z

 C #1 z   34.188472
 O #2 z  -34.188472   34.188472


           Symmetry 2

           C #1 x      O #2 x

 C #1 x   -0.471490
 O #2 x    0.471490   -0.471490


           Symmetry 3

           C #1 y      O #2 y

 C #1 y   -0.471490
 O #2 y    0.471490   -0.471490




           C #1 x      C #1 y      C #1 z      O #2 x      O #2 y      O #2 z

 C #1 x   -0.471490
 C #1 y    0.000000   -0.471490
 C #1 z    0.000000    0.000000   34.188472

 O #2 x    0.471490    0.000000    0.000000   -0.471490
 O #2 y    0.000000    0.471490    0.000000    0.000000   -0.471490
 O #2 z    0.000000    0.000000  -34.188472    0.000000    0.000000   34.188472




                           Total dipole moment
                           -------------------

                               au             Debye

                    z      0.23827554      0.60563613

  Conversion factor used: 1 a.u. =   2.54174691 Debye 



                     Total dipole moment derivatives
                     -------------------------------


           Symmetry 1
                              Ez

               C #1 z     0.68046347
               O #2 z    -0.68046347

           Symmetry 2
                              Ex

               C #1 x     0.09498701
               O #2 x    -0.09498701

           Symmetry 3
                              Ey

               C #1 y     0.09498701
               O #2 y    -0.09498701



                       Ex          Ey          Ez

      C #1    x    0.094987    0.000000    0.000000
      C #1    y    0.000000    0.094987    0.000000
      C #1    z    0.000000    0.000000    0.680463

      O #2    x   -0.094987    0.000000    0.000000
      O #2    y    0.000000   -0.094987    0.000000
      O #2    z    0.000000    0.000000   -0.680463

 @CHECKOUT-I, Total execution time (CPU/WALL):      705.38/     119.32 seconds.
--executable xvdint finished with status     0 in      119.55 seconds (walltime).
 --invoking executable--
/nfs/workspaces/public/cfour_mpi/bin/xjoda
  @GTFLGS-I, Hessian will be transformed to curvilinear coordinates.
  @GTFLGS-I, Hessian will be transformed to curvilinear coordinates.
  igrd and ihes are                      0                     1
  gradient from JOBARC 
   0.000000000000000   0.000000000000000   0.675460657896168
   0.000000000000000   0.000000000000000  -0.675460657896168
 
  @PROJFCM-I, Projecting force constant matrix onto totally symmetric subspace.
  Largest difference between matrix elements of symmetrized
  and unsymmetrized FCM :    -0.1066446931E-10.
  read isotopes from ZMAT file 
 
  Summary of diagonal Born-Oppenheimer correction at the correlated level
  The total diagonal Born-Oppenheimer correction (DBOC) is:      0.0038676952 a.u.
  The total diagonal Born-Oppenheimer correction (DBOC) is:        848.860983 cm-1
  The total diagonal Born-Oppenheimer correction (DBOC) is:            10.155 kJ/mole
  hellooooooo 
  readis is  F
 
 @CHECKOUT-I, Total execution time (CPU/WALL):        0.02/       0.09 seconds.
--executable xjoda finished with status     0 in        0.13 seconds (walltime).
  The final electronic energy is      -113.200152312372097 a.u. 
  This computation required                         4257.02 seconds (walltime).
