 --invoking executable--
/nfs/workspaces/public/cfour_mpi/bin/xjoda


   *************************************************************************
         <<<     CCCCCC     CCCCCC   |||     CCCCCC     CCCCCC   >>>
       <<<      CCC        CCC       |||    CCC        CCC         >>>
      <<<      CCC        CCC        |||   CCC        CCC            >>>
    <<<        CCC        CCC        |||   CCC        CCC              >>>
      <<<      CCC        CCC        |||   CCC        CCC            >>>
       <<<      CCC        CCC       |||    CCC        CCC         >>>
         <<<     CCCCCC     CCCCCC   |||     CCCCCC     CCCCCC   >>>
   *************************************************************************

     ****************************************************************
     * CFOUR Coupled-Cluster techniques for Computational Chemistry *
     ****************************************************************
 

   Department of Chemistry                Institut fuer Physikalische Chemie
   University of Florida                  Universitaet Mainz
   Gainesville, FL 32611, USA             D-55099 Mainz, Germany

   Department of Chemistry                Fakultaet fuer Chemie und Biowiss.
   Johns Hopkins University               Karlsruher Institut fuer Technologie
   Baltimore, MD 21218, USA               D-76131 Karlsruhe, Germany

   Department of Chemistry                Department of Physical Chemistry
   Southern Methodist University          Eotvos Lorand University
   Dallas, TX 75275, USA                  H-1053 Budapest, Hungary

 
                       Version 2.1
 
                     vincent.theory.phys.ucl.ac.uk                     
                     Sun  2 Mar 09:26:33 GMT 2025                      
                     integer*8 version is running
 
********************************************************************************
*                          Input from ZMAT file                                *
********************************************************************************
Carbon Monoxide DBOC calculation                                                
C                                                                               
O 1 r                                                                           
                                                                                
r=1.2724137931034483                                                            
                                                                                
                                                                                
*CFOUR(CALC=CCSD,BASIS=AUG-PCVQZ,SCF_CONV=10                                    
CC_CONV=14,DBOC=ON,MEMORY=500000000                                             
ZFIELD=-200)                                                                    
                                                                                
%isotopes                                                                       
12                                                                              
18                                                                              
********************************************************************************
  @GTFLGS-I, Hessian will be transformed to curvilinear coordinates.
    -------------------------------------------------------------------
                    CFOUR Control Parameters 
    -------------------------------------------------------------------
        External           Internal           Value            Units
          Name               Name
    -------------------------------------------------------------------
       ABCDTYPE             IABCDT         STANDARD    [  0]    ***   
       ANHARMONIC           IANHAR         OFF         [  0]    ***   
       ANH_ALGORIT          IANALG         STANDARD    [  0]    ***   
       ANH_DERIVAT          IANDER         SECOND      [  1]    ***   
       ANH_MODE             ANHMOD         VIBRATION   [  0]    ***   
       ANH_STEPSIZ          ICUBST             50000          x 10-6  
       ANH_SYMMETR          IANHSM         ABELIAN     [  0]    ***   
       AO_LADDERS           IAOLAD         SINGLEPASS  [  1]    ***   
       AV_SCF               IAVSCF         OFF         [  0]    ***   
       BASIS                IBASIS         AUG-PCVQZ   [ 52]    ***   
       BOTHVECTORS          BOTHVC         OFF         [  0]    ***   
       BOX_POTENT           IPIAB          OFF         [  0]    ***   
       BREIT                IBREIT         OFF         [  0]    ***   
       BRUCK_CONV           IBRTOL          10D-  4             ***   
       BRUECKNER            IBRKNR         OFF         [  0]    ***   
       BUFFERSIZE           IBUFFS              4096            ***   
       CACHE_RECS           ICHREC             10               ***   
       CALCLEVEL            ICLLVL         CCSD        [ 10]    ***   
       CCORBOPT             ICCORB         OFF         [  0]  x 0.01  
       CC_CONV              ICCCNV          10D- 14             ***   
       CC_EXPORDER          ICCEOR              5               ***   
       CC_EXTRAPOL          ICCEXT         DIIS        [  1]    ***   
       CC_GUESS             ICCGES         MP2         [  0]    ***   
       CC_MAXCYC            ICCCYC            100              cycles 
       CC_PROGRAM           ICCPRO         VCC         [  0]    ***   
       CHARGE               ICHRGE              0               ***   
       CHOLESKY             ICHOLE         OFF         [  0]    ***   
       CIS_CONV             ICISTL              5               ***   
       COMM_SIZE            IPSIZE            ***               ***   
       CONSTANT             ICONST         OLD         [  1]    ***   
       CONTINUUM            ICONTU         NONE        [  0]    ***   
       CONTRACTION          ICNTYP         GENERAL     [  1]    ***   
       COORDINATES          ICOORD         INTERNAL    [  0]    ***   
       CPHF_CONVER          ICPHFT          10D- 16             ***   
       CPHF_MAXCYC          ICPHFC             64              cycles 
       CUBIC                ICUBIC         OFF         [  0]    ***   
       CURVILINEAR          ICURVY         ON          [  1]    ***   
       DBOC                 IDBOC          ON          [  1]    ***   
       DCT                  IDCT           OFF         [  0]    ***   
       DERIV_LEV            IDRLVL         SECOND      [  2]    ***   
       DEVMEM_SIZE          IDVMEM          50000000           MByte  
       DIAG_MRCC            IEOMST          10D-  0             ***   
       DIFF_TYPE            IDIFTY         RELAXED     [  0]    ***   
       DIRECT               IDIRCT         OFF         [  0]    ***   
       DROPMO               IDRPMO      NONE         
       ECP                  IECP           OFF         [  0]    ***   
       EIGENVECTOR          IVEC                1               ***   
       EL_ANHARM            IELANH         OFF         [  0]    ***   
       EOMFOLLOW            IEOMSR         ENERGY      [  0]    ***   
       EOMIP                IEOMIP         OFF         [  0]    ***   
       EOMLEVEL             HBARFM         SAME        [  0]    ***   
       EOM_MRCC             IMRCCE         NEW         [  1]    ***   
       EOM_NONIT            EOMNON         OFF         [  0]    ***   
       EOM_NSING            IEOMSI          10D-  0             ***   
       EOM_NSTATES          IMRCCD         DAVIDSON    [  0]    ***   
       EOM_NTRIP            IEOMTR          10D-  0             ***   
       EOM_ORDER            IEXORD         ENERGY      [  0]    ***   
       EOM_PROPSTA          IEOMST              0               ***   
       ESTATE_CONV          IEXTOL          10D-  5             ***   
       ESTATE_DIAG          IEXDIG         ITERATIVE   [  0]    ***   
       ESTATE_LOCK          IESLOC         ON          [  1]    ***   
       ESTATE_MAXC          IEXMXC             40               ***   
       ESTATE_PROP          IEXPRP         OFF         [  0]    ***   
       EVAL_HESS            IRECAL              0            # of cyc.
       EXCITATION           IEXCIT              0               ***   
       EXCITE               IEXCIT         NONE        [  0]    ***   
       EXTERN_POT           IEXPOT         OFF         [  0]    ***   
       FCGRADNEW            IFCGNW         OFF         [  0]    ***   
       FC_FIELD             IFINFC              0             x 10-6  
       FD_CALTYPE           IFDCAL         GRADONLY    [  0]    ***   
       FD_PROJECT           IFDPRJ         OFF         [  1]    ***   
       FD_STEPSIZE          IDISFD              0            10-4 bohr
       FD_USEGROUP          IFDGRP         FULL        [  0]    ***   
       FILE_RECSIZ          IFLREC              4096           words  
       FINITE_PERT          IFIPER              0             x 10-6  
       FIXGEOM              IFIXGM         OFF         [  0]    ***   
       FOCK                 IFOCK          AO          [  1]    ***   
       FREQ_ALGORI          IVIALG         STANDARD    [  0]    ***   
       FROZEN_CORE          IFROCO         OFF         [  0]    ***   
       GAMMA_ABCD           IGABCD         STORE       [  0]    ***   
       GAMMA_ABCI           IGABCI         STORE       [  0]    ***   
       GENBAS_1             IGNBS1              0               ***   
       GENBAS_2             IGNBS2              0               ***   
       GENBAS_3             IGNBS3              0               ***   
       GENBAS_4             IGNBS4              0               ***   
       GEO_CONV             ICONTL              5              H/bohr 
       GEO_MAXCYC           IOPTCY             50               ***   
       GEO_MAXSTEP          IMXSTP            300            millibohr
       GEO_METHOD           INR            SINGLE_POINT[  5]    ***   
       GIAO                 IGIAO          OFF         [  1]    ***   
       GIMIC                IGIMIC         OFF         [  0]    ***   
       GRID                 IGRID          OFF         [  0]    ***   
       GRID_ALGO            IGALGO         SERIAL      [  0]    ***   
       GUESS                IGUESS         MOREAD      [  0]    ***   
       HBAR                 IHBAR          OFF         [  0]    ***   
       HESS_TYPE            IHESTP         SCF         [  0]    ***   
       HF2_FILE             IHF2Fl         USE         [  1]    ***   
       HFSTABILITY          ISTABL         OFF         [  0]    ***   
       INCORE               INCORE         OFF         [  0]    ***   
       INPUT_MRCC           IMRCC          ON          [  1]    ***   
       INTEGRALS            INTTYP         VMOL        [  1]    ***   
       JODA_PRINT           IJPRNT              0               ***   
       KEYWORD_OUT          IDMPKW         NO          [  0]    ***   
       LINDEP_TOL           ILINDP              8               ***   
       LINEQ_CONV           IZTACN          10D-  7           cycles  
       LINEQ_EXPOR          ILMAXD              5               ***   
       LINEQ_MAXCY          ILMAXC            100               ***   
       LINEQ_TYPE           ILTYPE         DIIS        [  1]    ***   
       LOCK_ORBOCC          ILOCOC         OFF         [  0]    ***   
       MEMORY_SIZE          IMEMSZ         500000000           words  
       MEM_UNIT             IMEMU          INTEGERWORDS[  0]    ***   
       MRCC                 IMRCCC         OFF         [  0]    ***   
       MULTIPLICTY          IMULTP              1               ***   
       NACOUPLING           IVCOUP         OFF         [  0]    ***   
       NEGEVAL              IDIE           ABORT       [  0]    ***   
       NEWNORM              INEWNO         OFF         [  0]    ***   
       NON-HF               INONHF         OFF         [  0]    ***   
       NTOP_TAMP            ITOPT2             15               ***   
       NUC_MODEL            INUCMO         POINT       [  0]    ***   
       OCCUPATION           IOCCU   ESTIMATED BY SCF 
       OPEN-SHELL           IOPEN          SPIN-ORBITAL[  0]    ***   
       OPTVIB               IOPTVB         OFF         [  0]    ***   
       ORBITALS             IORBTP         STANDARD    [  0]    ***   
       PARALLEL             IPARAL         ON          [  1]    ***   
       PARA_INT             IPINTS         ON          [  1]    ***   
       PARA_PRINT           IPPRIN              0               ***   
       PERT_ORB             IPTORB         STANDARD    [  0]    ***   
       POINTS               IGRDFD              0               ***   
       PRINT                IPRNT               0               ***   
       PROPS                IPROPS         OFF         [  0]    ***   
       PROP_INTEGR          IINTYP         INTERNAL    [  0]    ***   
       PSI                  IPSI           OFF         [  0]    ***   
       QC_ALG               IQCALG         FLM         [  0]    ***   
       QC_LINALG            IQCLIN         TRIDIAG     [  2]    ***   
       QC_MAXCYC            IQCMAX          10D-100           cycles  
       QC_MAXSCFCY          IQCMSC          10D- 15           cycles  
       QC_RTRUST            IQCRTR          10D-  0           x 10-3  
       QC_SKIPSCF           IQCSKI         OFF         [  0]    ***   
       QC_START             IQCSTA          10D-  1             ***   
       QRHFGUESS            IQGUES         OFF         [  0]    ***   
       QUARTIC              IQUART         OFF         [  0]    ***   
       RAMAN_INT            IRAMIN         OFF         [  0]    ***   
       RAMAN_ORB            IRAMRE         UNRELAXED   [  0]    ***   
       RDO                  IRDOFM         ON          [  1]    ***   
       REDUCE_REPR          REDREP         Ir          [  0]    ***   
       REFERENCE            IREFNC         RHF         [  0]    ***   
       RELATIVIST           IRELAT         OFF         [  0]    ***   
       RELAX_DENS           IRDENS         ON          [  1]    ***   
       RESET_FLAGS          IRESET         OFF         [  0]    ***   
       RESTART_CC           ICCRES         OFF         [  0]    ***   
       ROT_EVEC             ROTVEC              0               ***   
       SAVE_INTS            ISVINT         OFF         [  0]    ***   
       SCALE_ON             ISTCRT              0               ***   
       SCF_CONV             ISCFCV          10D- 10             ***   
       SCF_DAMPING          IDAMP               0             x 10-3  
       SCF_EXPORDE          IRPPOR              6               ***   
       SCF_EXPSTAR          IRPPLS              8               ***   
       SCF_EXTRAPO          IRPP           ON          [  1]    ***   
       SCF_MAXCYC           ISCFCY            150              cycles 
       SCF_NOSTOP           ISCFST         OFF         [  0]    ***   
       SCF_PRINT            ISCFPR              0               ***   
       SCF_PROG             ISCFPR         SCF         [  0]    ***   
       SD_FIELD             IFINSD              0             x 10-6  
       SOPERT               IPERSO         OFF         [  0]    ***   
       SPHERICAL            IDFGHI         ON          [  1]    ***   
       SPINORBIT            ISOCAL         OFF         [  0]    ***   
       SPINROTATIO          ISRCON         OFF         [  0]    ***   
       SPIN_FLIP            ISPFLP         OFF         [  0]    ***   
       SPIN_ORBIT           ISPORB         OFF         [  0]    ***   
       SPIN_SCAL            ISCSMP         OFF         [  0]    ***   
       STEEPSCALE           ISTPSC              1000          x 10-3  
       SUBGROUP             ISUBGP         DEFAULT     [  0]    ***   
       SUBGRPAXIS           ISBXYZ         X           [  0]    ***   
       SYMMETRY             ISYM           ON          [  0]    ***   
       SYM_CHECK            ISYMCK         OVERRIDE    [  1]    ***   
       T3_EXTRAPOL          IT3EXT         OFF         [  0]    ***   
       T4_EXTRAPOL          IT4EXP         OFF         [  0]    ***   
       TAMP_SUM             IEVERY              5               ***   
       TESTSUITE            ITESTS         OFF         [  0]    ***   
       THERMOCH             ITHERM         OFF         [  0]    ***   
       TOL_CHOLESK          ITOLCH          10D-  4             ***   
       TRANGRAD             IRESRM         OFF         [  0]    ***   
       TRANS_INV            ITRAIN         IGNORE      [  1]    ***   
       TREAT_PERT           ITREAT         SIMULTANEOUS[  0]    ***   
       TRIP_ALGORI          ITRALG         NORMAL      [  0]    ***   
       UIJ_THRESHO          IUIJTH              1               ***   
       UNITS                IUNITS         ANGSTROM    [  0]    ***   
       UNOS                 IUNOS          OFF         [  0]    ***   
       UPDATE_HESS          IHUPDT         ON          [  1]    ***   
       VIBPHASE             ISETPH         STANDARD    [  0]    ***   
       VIBRATION            IVIB           ANALYTIC    [  1]    ***   
       VIB_ALGORIT          IGEALG         STANDARD    [  0]    ***   
       VNATORB              IVNORB         OFF         [  0]    ***   
       VTRAN                IVTRAN         FULL/PARTIAL[  0]    ***   
       XFIELD               IXEFLD              0             x 10-6  
       XFORM_TOL            IXFTOL          10D- 11             ***   
       YFIELD               IYEFLD              0             x 10-6  
       ZFIELD               IZEFLD            ***             x 10-6  
       ZSCALE_EXP           IZEXPS         OFF         [  0]    ***   
    -------------------------------------------------------------------
   2 entries found in Z-matrix 
   Job Title : Carbon Monoxide DBOC calculation                                                
   There are  1 unique internal coordinates.
   Of these,  0 will be optimized.
   User supplied Z-matrix: 
--------------------------------------------------------------------------------
       SYMBOL    BOND      LENGTH    ANGLE     ANGLE     DIHED     ANGLE
                  TO      (ANGST)    WRT      (DEG)      WRT      (DEG)
--------------------------------------------------------------------------------
        C    
        O          1         r    
                  *Initial values for internal coordinates* 
                      Name             Value
                        r               1.2724137931
--------------------------------------------------------------------------------
  read isotopes from ZMAT file 
   Rotational constants (in cm-1): 
          1.4461569413             1.4461569413
   Rotational constants (in MHz): 
      43354.7004815218         43354.7004815218
********************************************************************************
   The full molecular point group is CXv .
   The largest Abelian subgroup of the full molecular point group is C2v .
   The computational point group is C2v .
********************************************************************************
--------------------------------------------------------------------------------
   Analysis of internal coordinates specified by Z-matrix 
--------------------------------------------------------------------------------
   *The nuclear repulsion energy is   19.962453203252029 a.u.
   *There is   1 degree of freedom within the tot. symm. molecular subspace.
   *Z-matrix requests optimization of   0 coordinates.
   *The optimization is constrained.
   *The following   1 parameters can have non-zero 
    derivatives within the totally symmetric subspace:
             r    [ 1]
   *The following   0 parameters are to be optimized:

   *The following coordinates must be varied in an  unconstrained optimization.
             r    [ 1]
--------------------------------------------------------------------------------


 ----------------------------------------------------------------
         Coordinates used in calculation (QCOMP) 
 ----------------------------------------------------------------
 Z-matrix   Atomic            Coordinates (in bohr)
  Symbol    Number           X              Y              Z
 ----------------------------------------------------------------
     C         6        -0.00000000     0.00000000     1.44268153
     O         8         0.00000000     0.00000000    -0.96183256
 ----------------------------------------------------------------
 
   Interatomic distance matrix (Angstroms) 
 
                 C             O    
                [ 1]        [ 2]
  C    [ 1]     0.00000
  O    [ 2]     1.27241     0.00000
 rotcon2
   Rotational constants (in cm-1): 
          1.4461569413             0.0000000000
   Rotational constants (in MHz): 
      43354.7004815218             0.0000000000
  ECPDATA file not present.   Using default ECPDATA. 
  @GTFLGS-I, Hessian will be transformed to curvilinear coordinates.
  There are  218 basis functions.
 @CHECKOUT-I, Total execution time (CPU/WALL):        0.27/       0.35 seconds.
--executable xjoda finished with status     0 in        0.38 seconds (walltime).
 --invoking executable--
/nfs/workspaces/public/cfour_mpi/bin/xvmol
 SERIAL VERSION OF MOLECULE STARTED
********************************************************************************
                    INPUT FROM MOL FILE
********************************************************************************
INTGRL        1    0    1    0    0    0    0    0    0                         
         *** CFOUR Program System (Release V0.1) ***                            
Carbon Monoxide DBOC calculation                                                
    2    2 X  Y       0.10E-08              0    0                              
   9999.00      3.00                                                            
          6.00000000    1    5    1    1    1    1    1                         
C #1  -0.000000000000000   0.000000000000000   1.442681532361257                
   16    9                                                                      
   33980.0000000000       9.100000000000000E-005 -1.900000000000000E-005        
  0.000000000000000E+000  0.000000000000000E+000  0.000000000000000E+000        
  0.000000000000000E+000  0.000000000000000E+000  0.000000000000000E+000        
  0.000000000000000E+000                                                        
   5089.00000000000       7.040000000000000E-004 -1.510000000000000E-004        
  0.000000000000000E+000  0.000000000000000E+000  0.000000000000000E+000        
  0.000000000000000E+000  0.000000000000000E+000  0.000000000000000E+000        
  0.000000000000000E+000                                                        
   1157.00000000000       3.693000000000000E-003 -7.850000000000000E-004        
  0.000000000000000E+000  0.000000000000000E+000  0.000000000000000E+000        
  0.000000000000000E+000  0.000000000000000E+000  0.000000000000000E+000        
  0.000000000000000E+000                                                        
   326.600000000000       1.536000000000000E-002 -3.324000000000000E-003        
  0.000000000000000E+000  0.000000000000000E+000  0.000000000000000E+000        
  0.000000000000000E+000  0.000000000000000E+000  0.000000000000000E+000        
  0.000000000000000E+000                                                        
   106.100000000000       5.292900000000000E-002 -1.151200000000000E-002        
  0.000000000000000E+000  0.000000000000000E+000  0.000000000000000E+000        
  0.000000000000000E+000  0.000000000000000E+000  0.000000000000000E+000        
  0.000000000000000E+000                                                        
   38.1100000000000       0.147043000000000      -3.416000000000000E-002        
  0.000000000000000E+000  0.000000000000000E+000  0.000000000000000E+000        
  0.000000000000000E+000  0.000000000000000E+000  0.000000000000000E+000        
  0.000000000000000E+000                                                        
   14.7500000000000       0.305631000000000      -7.717300000000001E-002        
  0.000000000000000E+000  0.000000000000000E+000  0.000000000000000E+000        
  0.000000000000000E+000  0.000000000000000E+000  0.000000000000000E+000        
  0.000000000000000E+000                                                        
   6.03500000000000       0.399345000000000      -0.141493000000000             
  0.000000000000000E+000  0.000000000000000E+000  0.000000000000000E+000        
  0.000000000000000E+000  0.000000000000000E+000  0.000000000000000E+000        
  0.000000000000000E+000                                                        
   2.53000000000000       0.217051000000000      -0.118019000000000             
  0.000000000000000E+000  0.000000000000000E+000  0.000000000000000E+000        
  0.000000000000000E+000  0.000000000000000E+000  0.000000000000000E+000        
  0.000000000000000E+000                                                        
  0.735500000000000       1.589400000000000E-002  0.273806000000000             
   1.00000000000000       0.000000000000000E+000  0.000000000000000E+000        
  0.000000000000000E+000  0.000000000000000E+000  0.000000000000000E+000        
  0.000000000000000E+000                                                        
  0.290500000000000      -3.084000000000000E-003  0.586510000000000             
  0.000000000000000E+000   1.00000000000000       0.000000000000000E+000        
  0.000000000000000E+000  0.000000000000000E+000  0.000000000000000E+000        
  0.000000000000000E+000                                                        
  0.111100000000000       9.779999999999999E-004  0.285430000000000             
  0.000000000000000E+000  0.000000000000000E+000   1.00000000000000             
  0.000000000000000E+000  0.000000000000000E+000  0.000000000000000E+000        
  0.000000000000000E+000                                                        
   7.21600000000000       0.000000000000000E+000  0.000000000000000E+000        
  0.000000000000000E+000  0.000000000000000E+000  0.000000000000000E+000        
   1.00000000000000       0.000000000000000E+000  0.000000000000000E+000        
  0.000000000000000E+000                                                        
   19.5700000000000       0.000000000000000E+000  0.000000000000000E+000        
  0.000000000000000E+000  0.000000000000000E+000  0.000000000000000E+000        
  0.000000000000000E+000   1.00000000000000       0.000000000000000E+000        
  0.000000000000000E+000                                                        
   53.0730000000000       0.000000000000000E+000  0.000000000000000E+000        
  0.000000000000000E+000  0.000000000000000E+000  0.000000000000000E+000        
  0.000000000000000E+000  0.000000000000000E+000   1.00000000000000             
  0.000000000000000E+000                                                        
  4.145000000000000E-002  0.000000000000000E+000  0.000000000000000E+000        
  0.000000000000000E+000  0.000000000000000E+000  0.000000000000000E+000        
  0.000000000000000E+000  0.000000000000000E+000  0.000000000000000E+000        
   1.00000000000000                                                             
   10    8                                                                      
   34.5100000000000       5.378000000000000E-003  0.000000000000000E+000        
  0.000000000000000E+000  0.000000000000000E+000  0.000000000000000E+000        
  0.000000000000000E+000  0.000000000000000E+000  0.000000000000000E+000        
   7.91500000000000       3.613200000000000E-002  0.000000000000000E+000        
  0.000000000000000E+000  0.000000000000000E+000  0.000000000000000E+000        
  0.000000000000000E+000  0.000000000000000E+000  0.000000000000000E+000        
   2.36800000000000       0.142493000000000       0.000000000000000E+000        
  0.000000000000000E+000  0.000000000000000E+000  0.000000000000000E+000        
  0.000000000000000E+000  0.000000000000000E+000  0.000000000000000E+000        
  0.813200000000000       0.342150000000000        1.00000000000000             
  0.000000000000000E+000  0.000000000000000E+000  0.000000000000000E+000        
  0.000000000000000E+000  0.000000000000000E+000  0.000000000000000E+000        
  0.289000000000000       0.463864000000000       0.000000000000000E+000        
   1.00000000000000       0.000000000000000E+000  0.000000000000000E+000        
  0.000000000000000E+000  0.000000000000000E+000  0.000000000000000E+000        
  0.100700000000000       0.250028000000000       0.000000000000000E+000        
  0.000000000000000E+000   1.00000000000000       0.000000000000000E+000        
  0.000000000000000E+000  0.000000000000000E+000  0.000000000000000E+000        
   8.18200000000000       0.000000000000000E+000  0.000000000000000E+000        
  0.000000000000000E+000  0.000000000000000E+000   1.00000000000000             
  0.000000000000000E+000  0.000000000000000E+000  0.000000000000000E+000        
   24.1860000000000       0.000000000000000E+000  0.000000000000000E+000        
  0.000000000000000E+000  0.000000000000000E+000  0.000000000000000E+000        
   1.00000000000000       0.000000000000000E+000  0.000000000000000E+000        
   71.4940000000000       0.000000000000000E+000  0.000000000000000E+000        
  0.000000000000000E+000  0.000000000000000E+000  0.000000000000000E+000        
  0.000000000000000E+000   1.00000000000000       0.000000000000000E+000        
  3.218000000000000E-002  0.000000000000000E+000  0.000000000000000E+000        
  0.000000000000000E+000  0.000000000000000E+000  0.000000000000000E+000        
  0.000000000000000E+000  0.000000000000000E+000   1.00000000000000             
    6    6                                                                      
   1.84800000000000        1.00000000000000       0.000000000000000E+000        
  0.000000000000000E+000  0.000000000000000E+000  0.000000000000000E+000        
  0.000000000000000E+000                                                        
  0.649000000000000       0.000000000000000E+000   1.00000000000000             
  0.000000000000000E+000  0.000000000000000E+000  0.000000000000000E+000        
  0.000000000000000E+000                                                        
  0.228000000000000       0.000000000000000E+000  0.000000000000000E+000        
   1.00000000000000       0.000000000000000E+000  0.000000000000000E+000        
  0.000000000000000E+000                                                        
   8.65600000000000       0.000000000000000E+000  0.000000000000000E+000        
  0.000000000000000E+000   1.00000000000000       0.000000000000000E+000        
  0.000000000000000E+000                                                        
   33.2130000000000       0.000000000000000E+000  0.000000000000000E+000        
  0.000000000000000E+000  0.000000000000000E+000   1.00000000000000             
  0.000000000000000E+000                                                        
  7.660000000000000E-002  0.000000000000000E+000  0.000000000000000E+000        
  0.000000000000000E+000  0.000000000000000E+000  0.000000000000000E+000        
   1.00000000000000                                                             
    4    4                                                                      
   1.41900000000000        1.00000000000000       0.000000000000000E+000        
  0.000000000000000E+000  0.000000000000000E+000                                
  0.485000000000000       0.000000000000000E+000   1.00000000000000             
  0.000000000000000E+000  0.000000000000000E+000                                
   24.6940000000000       0.000000000000000E+000  0.000000000000000E+000        
   1.00000000000000       0.000000000000000E+000                                
  0.187000000000000       0.000000000000000E+000  0.000000000000000E+000        
  0.000000000000000E+000   1.00000000000000                                     
    2    2                                                                      
   1.01100000000000        1.00000000000000       0.000000000000000E+000        
  0.424000000000000       0.000000000000000E+000   1.00000000000000             
          8.00000000    1    5    1    1    1    1    1                         
O #2   0.000000000000000   0.000000000000000  -0.961832557729656                
   16    9                                                                      
   61420.0000000000       9.000000000000001E-005 -2.000000000000000E-005        
  0.000000000000000E+000  0.000000000000000E+000  0.000000000000000E+000        
  0.000000000000000E+000  0.000000000000000E+000  0.000000000000000E+000        
  0.000000000000000E+000                                                        
   9199.00000000000       6.980000000000001E-004 -1.590000000000000E-004        
  0.000000000000000E+000  0.000000000000000E+000  0.000000000000000E+000        
  0.000000000000000E+000  0.000000000000000E+000  0.000000000000000E+000        
  0.000000000000000E+000                                                        
   2091.00000000000       3.664000000000000E-003 -8.290000000000000E-004        
  0.000000000000000E+000  0.000000000000000E+000  0.000000000000000E+000        
  0.000000000000000E+000  0.000000000000000E+000  0.000000000000000E+000        
  0.000000000000000E+000                                                        
   590.900000000000       1.521800000000000E-002 -3.508000000000000E-003        
  0.000000000000000E+000  0.000000000000000E+000  0.000000000000000E+000        
  0.000000000000000E+000  0.000000000000000E+000  0.000000000000000E+000        
  0.000000000000000E+000                                                        
   192.300000000000       5.242300000000000E-002 -1.215600000000000E-002        
  0.000000000000000E+000  0.000000000000000E+000  0.000000000000000E+000        
  0.000000000000000E+000  0.000000000000000E+000  0.000000000000000E+000        
  0.000000000000000E+000                                                        
   69.3200000000000       0.145921000000000      -3.626100000000000E-002        
  0.000000000000000E+000  0.000000000000000E+000  0.000000000000000E+000        
  0.000000000000000E+000  0.000000000000000E+000  0.000000000000000E+000        
  0.000000000000000E+000                                                        
   26.9700000000000       0.305258000000000      -8.299200000000000E-002        
  0.000000000000000E+000  0.000000000000000E+000  0.000000000000000E+000        
  0.000000000000000E+000  0.000000000000000E+000  0.000000000000000E+000        
  0.000000000000000E+000                                                        
   11.1000000000000       0.398508000000000      -0.152090000000000             
  0.000000000000000E+000  0.000000000000000E+000  0.000000000000000E+000        
  0.000000000000000E+000  0.000000000000000E+000  0.000000000000000E+000        
  0.000000000000000E+000                                                        
   4.68200000000000       0.216980000000000      -0.115331000000000             
  0.000000000000000E+000  0.000000000000000E+000  0.000000000000000E+000        
  0.000000000000000E+000  0.000000000000000E+000  0.000000000000000E+000        
  0.000000000000000E+000                                                        
   1.42800000000000       1.759400000000000E-002  0.288979000000000             
   1.00000000000000       0.000000000000000E+000  0.000000000000000E+000        
  0.000000000000000E+000  0.000000000000000E+000  0.000000000000000E+000        
  0.000000000000000E+000                                                        
  0.554700000000000      -2.502000000000000E-003  0.586128000000000             
  0.000000000000000E+000   1.00000000000000       0.000000000000000E+000        
  0.000000000000000E+000  0.000000000000000E+000  0.000000000000000E+000        
  0.000000000000000E+000                                                        
  0.206700000000000       9.540000000000000E-004  0.277624000000000             
  0.000000000000000E+000  0.000000000000000E+000   1.00000000000000             
  0.000000000000000E+000  0.000000000000000E+000  0.000000000000000E+000        
  0.000000000000000E+000                                                        
   12.9740000000000       0.000000000000000E+000  0.000000000000000E+000        
  0.000000000000000E+000  0.000000000000000E+000  0.000000000000000E+000        
   1.00000000000000       0.000000000000000E+000  0.000000000000000E+000        
  0.000000000000000E+000                                                        
   34.9000000000000       0.000000000000000E+000  0.000000000000000E+000        
  0.000000000000000E+000  0.000000000000000E+000  0.000000000000000E+000        
  0.000000000000000E+000   1.00000000000000       0.000000000000000E+000        
  0.000000000000000E+000                                                        
   93.8810000000000       0.000000000000000E+000  0.000000000000000E+000        
  0.000000000000000E+000  0.000000000000000E+000  0.000000000000000E+000        
  0.000000000000000E+000  0.000000000000000E+000   1.00000000000000             
  0.000000000000000E+000                                                        
  6.959000000000000E-002  0.000000000000000E+000  0.000000000000000E+000        
  0.000000000000000E+000  0.000000000000000E+000  0.000000000000000E+000        
  0.000000000000000E+000  0.000000000000000E+000  0.000000000000000E+000        
   1.00000000000000                                                             
   10    8                                                                      
   63.4200000000000       6.044000000000000E-003  0.000000000000000E+000        
  0.000000000000000E+000  0.000000000000000E+000  0.000000000000000E+000        
  0.000000000000000E+000  0.000000000000000E+000  0.000000000000000E+000        
   14.6600000000000       4.179900000000000E-002  0.000000000000000E+000        
  0.000000000000000E+000  0.000000000000000E+000  0.000000000000000E+000        
  0.000000000000000E+000  0.000000000000000E+000  0.000000000000000E+000        
   4.45900000000000       0.161143000000000       0.000000000000000E+000        
  0.000000000000000E+000  0.000000000000000E+000  0.000000000000000E+000        
  0.000000000000000E+000  0.000000000000000E+000  0.000000000000000E+000        
   1.53100000000000       0.356731000000000        1.00000000000000             
  0.000000000000000E+000  0.000000000000000E+000  0.000000000000000E+000        
  0.000000000000000E+000  0.000000000000000E+000  0.000000000000000E+000        
  0.530200000000000       0.448309000000000       0.000000000000000E+000        
   1.00000000000000       0.000000000000000E+000  0.000000000000000E+000        
  0.000000000000000E+000  0.000000000000000E+000  0.000000000000000E+000        
  0.175000000000000       0.244940000000000       0.000000000000000E+000        
  0.000000000000000E+000   1.00000000000000       0.000000000000000E+000        
  0.000000000000000E+000  0.000000000000000E+000  0.000000000000000E+000        
   14.4750000000000       0.000000000000000E+000  0.000000000000000E+000        
  0.000000000000000E+000  0.000000000000000E+000   1.00000000000000             
  0.000000000000000E+000  0.000000000000000E+000  0.000000000000000E+000        
   42.7300000000000       0.000000000000000E+000  0.000000000000000E+000        
  0.000000000000000E+000  0.000000000000000E+000  0.000000000000000E+000        
   1.00000000000000       0.000000000000000E+000  0.000000000000000E+000        
   126.140000000000       0.000000000000000E+000  0.000000000000000E+000        
  0.000000000000000E+000  0.000000000000000E+000  0.000000000000000E+000        
  0.000000000000000E+000   1.00000000000000       0.000000000000000E+000        
  5.348000000000000E-002  0.000000000000000E+000  0.000000000000000E+000        
  0.000000000000000E+000  0.000000000000000E+000  0.000000000000000E+000        
  0.000000000000000E+000  0.000000000000000E+000   1.00000000000000             
    6    6                                                                      
   3.77500000000000        1.00000000000000       0.000000000000000E+000        
  0.000000000000000E+000  0.000000000000000E+000  0.000000000000000E+000        
  0.000000000000000E+000                                                        
   1.30000000000000       0.000000000000000E+000   1.00000000000000             
  0.000000000000000E+000  0.000000000000000E+000  0.000000000000000E+000        
  0.000000000000000E+000                                                        
  0.444000000000000       0.000000000000000E+000  0.000000000000000E+000        
   1.00000000000000       0.000000000000000E+000  0.000000000000000E+000        
  0.000000000000000E+000                                                        
   14.9270000000000       0.000000000000000E+000  0.000000000000000E+000        
  0.000000000000000E+000   1.00000000000000       0.000000000000000E+000        
  0.000000000000000E+000                                                        
   57.5440000000000       0.000000000000000E+000  0.000000000000000E+000        
  0.000000000000000E+000  0.000000000000000E+000   1.00000000000000             
  0.000000000000000E+000                                                        
  0.154000000000000       0.000000000000000E+000  0.000000000000000E+000        
  0.000000000000000E+000  0.000000000000000E+000  0.000000000000000E+000        
   1.00000000000000                                                             
    4    4                                                                      
   2.66600000000000        1.00000000000000       0.000000000000000E+000        
  0.000000000000000E+000  0.000000000000000E+000                                
  0.859000000000000       0.000000000000000E+000   1.00000000000000             
  0.000000000000000E+000  0.000000000000000E+000                                
   26.4830000000000       0.000000000000000E+000  0.000000000000000E+000        
   1.00000000000000       0.000000000000000E+000                                
  0.324000000000000       0.000000000000000E+000  0.000000000000000E+000        
  0.000000000000000E+000   1.00000000000000                                     
    2    2                                                                      
   1.84600000000000        1.00000000000000       0.000000000000000E+000        
  0.714000000000000       0.000000000000000E+000   1.00000000000000             
FINISH                                                                          
 
********************************************************************************
 ONE- AND TWO-ELECTRON INTEGRALS OVER SYMMETRY-ADAPTED AOS ARE CALCULATED.

  SPHERICAL HARMONICS ARE USED.
  
  INTEGRALS LESS THAN  0.10E-13 ARE NEGLECTED.

  NUCLEAR REPULSION ENERGY :   19.9624532033 A.U.
  @MOLECU-I, ONE ELECTRON INTEGRALS (CPU/WALL):        0.06/       0.06 SECONDS.
  @TWOEL-I,    4537808 INTEGRALS OF SYMMETRY TYPE  I I I I
  @TWOEL-I,   19512887 INTEGRALS OF SYMMETRY TYPE  I J I J
  @TWOEL-I,   10281884 INTEGRALS OF SYMMETRY TYPE  I I J J
  @TWOEL-I,   14441729 INTEGRALS OF SYMMETRY TYPE  I J K L
  @TWOEL-I, TOTAL NUMBER OF 2-E INTEGRALS   48774308.
  @MOLECU-I, TWO ELECTRON INTEGRALS (CPU/WALL):      240.42/      32.60 SECONDS.
 @CHECKOUT-I, Total execution time (CPU/WALL):      240.50/      32.69 seconds.

Running with 14 threads/proc

--executable xvmol finished with status     0 in       32.73 seconds (walltime).
 --invoking executable--
/nfs/workspaces/public/cfour_mpi/bin/xvmol2ja
 @GETMEM-I,  Allocated    3814 MB of main memory.
 @CHECKOUT-I, Total execution time (CPU/WALL):        0.25/       0.08 seconds.
--executable xvmol2ja finished with status     0 in        0.12 seconds (walltime).
 --invoking executable--
/nfs/workspaces/public/cfour_mpi/bin/xvprop
 @GETMEM-I,  Allocated    3814 MB of main memory.
   Property integrals will be calculated.
    --------------------------------------------------------------
                                   Property evaluated at 
    Property type                X             Y             Z
    --------------------------------------------------------------
    Dipole moment               ----          ----          ----  
    Quadrupole moment           ----          ----          ----  
    Octopole moment             ----          ----          ----  
    Relativisitic corr.         ----          ----          ----  
    Second moment            0.0000000     0.0000000     0.0000000
    Electron density         0.0000000     0.0000000     1.4426815
    Electron density         0.0000000     0.0000000    -0.9618326
    Field gradient           0.0000000     0.0000000     1.4426815
    Field gradient           0.0000000     0.0000000    -0.9618326
    Potential                0.0000000     0.0000000     1.4426815
    Potential                0.0000000     0.0000000    -0.9618326
    --------------------------------------------------------------
 @CHECKOUT-I, Total execution time (CPU/WALL):        1.65/       1.70 seconds.
--executable xvprop finished with status     0 in        1.73 seconds (walltime).
 --invoking executable--
/nfs/workspaces/public/cfour_mpi/bin/xvscf
  There are  218 functions in the AO basis.

  There are 4 irreducible representations.

       Irrep        # of functions
         1                 86
         2                 52
         3                 52
         4                 28


  Parameters for SCF calculation: 
        SCF reference function:  RHF  
  Maximum number of iterations:  150
     Full symmetry point group: CXv 
     Computational point group: C2v 
        Initial density matrix: MOREAD                 
     SCF convergence tolerance: 10**(-10)
  DIIS convergence acceleration:  ON
          Latest start for DIIS:   8
                     DIIS order:   6

  Memory information:    2523578 words required.
  Fock matrices are constructed from AO integral file.
 @GETMEM-I,  Allocated      19 MB of main memory.
  Initialization and symmetry analysis required      0.001 seconds.

  Adding electric field perturbation to one-electron Hamiltonian.
  Field direction     : Z
  Field strength      : -0.0002000 a.u.

  @INITGES-I, Occupancies from core Hamiltonian:

          Alpha population by irrep:   5    1    1    0
           Beta population by irrep:   5    1    1    0


 total no. of electrons in initial guess :  0.000000000000000E+000
  --------------------------------------------------------------------
  Iteration         Total Energy            Largest Density Difference
  --------------------------------------------------------------------
       0            19.962645488998014              0.0000000000D+00
   current occupation vector 
     5  1  1  0
     5  1  1  0
       1           -92.677169691118451              0.1801190894D+02
   current occupation vector 
     5  1  1  0
     5  1  1  0
       2           -98.191710235656672              0.1800783345D+02
   current occupation vector 
     5  1  1  0
     5  1  1  0
       3          -103.519033363489399              0.7883792212D+01
   current occupation vector 
     5  1  1  0
     5  1  1  0
       4           -99.563329000916468              0.7146607640D+01
   current occupation vector 
     5  1  1  0
     5  1  1  0
       5          -102.117876532506926              0.5965702394D+01
   current occupation vector 
     5  1  1  0
     5  1  1  0
       6           -98.551008013610698              0.5934856864D+01
   current occupation vector 
     5  1  1  0
     5  1  1  0
       7          -102.129599580754586              0.6143096153D+01
   current occupation vector 
     5  1  1  0
     5  1  1  0
       8           -98.452303552111488              0.6140571540D+01
   current occupation vector 
     5  1  1  0
     5  1  1  0
       9          -109.434546638407056              0.4622393012D+01
   current occupation vector 
     5  1  1  0
     5  1  1  0
      10          -111.468497738399407              0.1129557575D+01
   current occupation vector 
     5  1  1  0
     5  1  1  0
      11          -112.641586894070400              0.7766131151D+00
   current occupation vector 
     5  1  1  0
     5  1  1  0
      12          -112.734028294063990              0.2845431120D+00
   current occupation vector 
     5  1  1  0
     5  1  1  0
      13          -112.735667025412397              0.4496223993D-01
   current occupation vector 
     5  1  1  0
     5  1  1  0
      14          -112.735865823135669              0.1650518544D-01
   current occupation vector 
     5  1  1  0
     5  1  1  0
      15          -112.735899996080661              0.1079335875D-01
   current occupation vector 
     5  1  1  0
     5  1  1  0
      16          -112.735900481908743              0.9818626068D-03
   current occupation vector 
     5  1  1  0
     5  1  1  0
      17          -112.735900510456702              0.2964267897D-03
   current occupation vector 
     5  1  1  0
     5  1  1  0
      18          -112.735900512920836              0.9741792131D-04
   current occupation vector 
     5  1  1  0
     5  1  1  0
      19          -112.735900512980947              0.1598613146D-04
   current occupation vector 
     5  1  1  0
     5  1  1  0
      20          -112.735900512983761              0.2548797175D-05
   current occupation vector 
     5  1  1  0
     5  1  1  0
      21          -112.735900512982084              0.3867267926D-06
   current occupation vector 
     5  1  1  0
     5  1  1  0
      22          -112.735900512982312              0.7767765053D-07
   current occupation vector 
     5  1  1  0
     5  1  1  0
      23          -112.735900512983108              0.2314092140D-07
   current occupation vector 
     5  1  1  0
     5  1  1  0
      24          -112.735900512982198              0.5295792693D-09
   current occupation vector 
     5  1  1  0
     5  1  1  0
      25          -112.735900512983676              0.3441236185D-09
   current occupation vector 
     5  1  1  0
     5  1  1  0
      26          -112.735900512982369              0.3011244587D-09
   current occupation vector 
     5  1  1  0
     5  1  1  0
      27          -112.735900512982596              0.1421041063D-09
   current occupation vector 
     5  1  1  0
     5  1  1  0

  SCF has converged.

 Density matrix saved to file den.dat
 total electron number:   13.9999999999999     
     E(SCF)=      -112.735900512982596              0.9663929379D-10

  Eigenvector printing suppressed.

 @PUTMOS-I, Writing converged MOs to NEWMOS. 
 @PUTMOS-I, Symmetry   1 Full Blocks 21 Partial Blocksize   2
 @PUTMOS-I, Symmetry   2 Full Blocks 13 Partial Blocksize   0
 @PUTMOS-I, Symmetry   3 Full Blocks 13 Partial Blocksize   0
 @PUTMOS-I, Symmetry   4 Full Blocks  7 Partial Blocksize   0
 @PUTFOCK-I, Writing converged Fock matrix to NEWFOCK. 
 @PUTFOCK-I, Symmetry   1 Full Blocks 21 Partial Blocksize   2
 @PUTFOCK-I, Symmetry   2 Full Blocks 13 Partial Blocksize   0
 @PUTFOCK-I, Symmetry   3 Full Blocks 13 Partial Blocksize   0
 @PUTFOCK-I, Symmetry   4 Full Blocks  7 Partial Blocksize   0


 
  ORBITAL EIGENVALUES (ALPHA)  (1H = 27.2113834 eV)

       MO #        E(hartree)               E(eV)           FULLSYM    COMPSYM
       ----   --------------------   --------------------   -------   ---------
    1     1         -20.6664134319        -562.3616993973     SG+        A1 (1)
    2     2         -11.4223289469        -310.8173722937     SG+        A1 (1)
    3     3          -1.4286663682         -38.8759882964     SG+        A1 (1)
    4     4          -0.7947634625         -21.6266132901     SG+        A1 (1)
    5    87          -0.5840617174         -15.8931273212      PI        B1 (2)
    6   139          -0.5840617174         -15.8931273212      PI        B2 (3)
    7     5          -0.5656818182         -15.3929848386     SG+        A1 (1)
  +++++++++++++++++++++++++++++++++++++++++++++++++++++++++++++++++++++++++++++
    8    88           0.0528382805           1.4378027100      PI        B1 (2)
    9   140           0.0528382805           1.4378027100      PI        B2 (3)
   10     6           0.0627572330           1.7077111283     SG+        A1 (1)
   11     7           0.0707221843           1.9244484707     SG+        A1 (1)
   12    89           0.1066693368           2.9026202200      PI        B1 (2)
   13   141           0.1066693368           2.9026202200      PI        B2 (3)
   14     8           0.1570408372           4.2732984298     SG+        A1 (1)
   15    90           0.1685208255           4.5856847930      PI        B1 (2)
   16   142           0.1685208255           4.5856847930      PI        B2 (3)
   17     9           0.2266883882           6.1685046427      DE        A1 (1)
   18   191           0.2266883882           6.1685046427      DE        A2 (4)
   19    10           0.2281672777           6.2087472717     SG+        A1 (1)
   20    11           0.2996933137           8.1550696603     SG+        A1 (1)
   21    91           0.3065526331           8.3417212303      PI        B1 (2)
   22   143           0.3065526331           8.3417212303      PI        B2 (3)
   23    12           0.3835722913          10.4375326803     SG+        A1 (1)
   24    92           0.3958318747          10.7711329047      PI        B1 (2)
   25   144           0.3958318747          10.7711329047      PI        B2 (3)
   26    13           0.5095554984          13.8657100298     SG+        A1 (1)
   27   192           0.5424823748          14.7616958885      DE        A2 (4)
   28    14           0.5424823748          14.7616958885      DE        A1 (1)
   29    15           0.5784792972          15.7412219464     SG+        A1 (1)
   30   145           0.6260133448          17.0346891399      PI        B2 (3)
   31    93           0.6260133448          17.0346891399      PI        B1 (2)
   32   146           0.7447249995          20.2649974903      PH        B2 (3)
   33    94           0.7447249995          20.2649974903      PH        B1 (2)
   34    16           0.7608162107          20.7028616076      DE        A1 (1)
   35   193           0.7608162107          20.7028616076      DE        A2 (4)
   36    17           0.7682064357          20.9039598516     SG+        A1 (1)
   37   147           0.8059237848          21.9303010985      PI        B2 (3)
   38    95           0.8059237848          21.9303010985      PI        B1 (2)
   39    18           0.8350381863          22.7225442416     SG+        A1 (1)
   40    19           0.8702816509          23.6815676687     SG+        A1 (1)
   41   194           0.8822806335          24.0080765850      DE        A2 (4)
   42    20           0.8822806335          24.0080765850      DE        A1 (1)
   43   148           0.8922590623          24.2796034369      PI        B2 (3)
   44    96           0.8922590623          24.2796034370      PI        B1 (2)
   45   149           1.0480339214          28.5184528507      PI        B2 (3)
   46    97           1.0480339214          28.5184528508      PI        B1 (2)
   47    21           1.1315435692          30.7908658954     SG+        A1 (1)
   48    22           1.4288862229          38.8819708454     SG+        A1 (1)
   49   150           1.4371641365          39.1072243277      PH        B2 (3)
   50    98           1.4371641365          39.1072243277      PH        B1 (2)
   51   195           1.5419369595          41.9582377841      DE        A2 (4)
   52    23           1.5419369595          41.9582377841      DE        A1 (1)
   53   151           1.5696413335          42.7121121251      PI        B2 (3)
   54    99           1.5696413335          42.7121121251      PI        B1 (2)
   55    24           1.6581501638          45.1205598430     SG+        A1 (1)
   56   152           1.7022318636          46.3200838761      PI        B2 (3)
   57   100           1.7022318636          46.3200838761      PI        B1 (2)
   58   196           1.7451893958          47.4890177553      DE        A2 (4)
   59    25           1.7451893958          47.4890177554      DE        A1 (1)
   60    26           1.8266678806          49.7061600424     SG+        A1 (1)
   61   153           2.0379015733          55.4541210433      PI        B2 (3)
   62   101           2.0379015733          55.4541210433      PI        B1 (2)
   63    27           2.0566352752          55.9638909885     SG+        A1 (1)
   64   197           2.0948520262          57.0038216524      PI        A2 (4)
   65    28           2.0948520262          57.0038216524      PI        A1 (1)
   66   198           2.1692254699          59.0276259434      DE        A2 (4)
   67    29           2.1692254699          59.0276259434      DE        A1 (1)
   68   102           2.2385215951          60.9132693748      PH        B1 (2)
   69   154           2.2385215951          60.9132693748      PH        B2 (3)
   70   155           2.2935369519          62.4103133409      PI        B2 (3)
   71   103           2.2935369519          62.4103133409      PI        B1 (2)
   72    30           2.2999517431          62.5848686821     SG+        A1 (1)
   73   104           2.3111995952          62.8909382993      PH        B1 (2)
   74   156           2.3111995952          62.8909382993      PH        B2 (3)
   75   199           2.3396589857          63.6653576855      DE        A2 (4)
   76    31           2.3396589857          63.6653576855      DE        A1 (1)
   77    32           2.4881210283          67.7052152473     SG+        A1 (1)
   78   157           2.5576696051          69.5977282362      PI        B2 (3)
   79   105           2.5576696051          69.5977282362      PI        B1 (2)
   80   158           2.7193896816          73.9983552390      PI        B2 (3)
   81   106           2.7193896816          73.9983552390      PI        B1 (2)
   82    33           2.7447741566          74.6891019217     SG+        A1 (1)
   83   200           2.8859636938          78.5310645513      DE        A2 (4)
   84    34           2.8859636938          78.5310645514      DE        A1 (1)
   85    35           3.4331389027          93.4204589477     SG+        A1 (1)
   86   159           3.6749759415         100.0011793307      PI        B2 (3)
   87   107           3.6749759415         100.0011793307      PI        B1 (2)
   88   201           3.7055557067         100.8332970447      PI        A2 (4)
   89    36           3.7055557067         100.8332970447      PI        A1 (1)
   90    37           3.9028170167         106.2010501813     SG+        A1 (1)
   91   160           4.0839813772         111.1307830530      PH        B2 (3)
   92   108           4.0839813772         111.1307830530      PH        B1 (2)
   93   161           4.1530737755         113.0108827948      PH        B2 (3)
   94   109           4.1530737755         113.0108827948      PH        B1 (2)
   95   162           4.1898311110         114.0111007425      PI        B2 (3)
   96   110           4.1898311110         114.0111007425      PI        B1 (2)
   97   202           4.1979182998         114.2311643385      DE        A2 (4)
   98    38           4.1979182998         114.2311643385      DE        A1 (1)
   99    39           4.2278214398         115.0448701453     SG+        A1 (1)
  100   203           4.3206761547         117.5715753925      DE        A2 (4)
  101    40           4.3206761547         117.5715753925      DE        A1 (1)
  102    41           4.3884352324         119.4153936340     SG+        A1 (1)
  103   163           4.8873928749         132.9927213442      PI        B2 (3)
  104   111           4.8873928749         132.9927213443      PI        B1 (2)
  105   164           4.9071318579         133.5298463789      PI        B2 (3)
  106   112           4.9071318579         133.5298463790      PI        B1 (2)
  107   204           5.0285905934         136.8349065998      DE        A2 (4)
  108    42           5.0285905934         136.8349065999      DE        A1 (1)
  109    43           5.1834646450         141.0492437945     SG+        A1 (1)
  110    44           5.3795256908         146.3843360834     SG+        A1 (1)
  111   113           5.6426660086         153.5447481588      PI        B1 (2)
  112   165           5.6426660086         153.5447481589      PI        B2 (3)
  113   205           5.8785373897         159.9631347423      PI        A2 (4)
  114    45           5.8785373897         159.9631347423      PI        A1 (1)
  115   166           6.0190225487         163.7859302654      PH        B2 (3)
  116   114           6.0190225487         163.7859302654      PH        B1 (2)
  117    46           6.2272204056         169.4512819727     SG+        A1 (1)
  118   206           6.2476048869         170.0059719099      DE        A2 (4)
  119    47           6.2476048869         170.0059719099      DE        A1 (1)
  120   167           6.2793672727         170.8702703658      PI        B2 (3)
  121   115           6.2793672727         170.8702703658      PI        B1 (2)
  122   116           6.4167871116         174.6096542898      PH        B1 (2)
  123   168           6.4167871116         174.6096542898      PH        B2 (3)
  124   207           6.5456885511         178.1172407821      DE        A2 (4)
  125    48           6.5456885511         178.1172407821      DE        A1 (1)
  126    49           6.6343232077         180.5291124054     SG+        A1 (1)
  127   208           6.8686752734         186.9061563137      DE        A2 (4)
  128    50           6.8686752734         186.9061563137      DE        A1 (1)
  129   169           7.1861360252         195.5447025451      PI        B2 (3)
  130   117           7.1861360252         195.5447025451      PI        B1 (2)
  131    51           7.5316204636         204.9458120570     SG+        A1 (1)
  132   170           8.0452782456         218.9231509010      PI        B2 (3)
  133   118           8.0452782456         218.9231509010      PI        B1 (2)
  134    52           8.2020695724         223.1896598085     SG+        A1 (1)
  135   171          10.0864251191         274.4655810508      PI        B2 (3)
  136   119          10.0864251191         274.4655810511      PI        B1 (2)
  137    53          10.2284327456         278.3298050213     SG+        A1 (1)
  138    54          10.6123879769         288.7777580285      PI        A1 (1)
  139   209          10.6123879769         288.7777580285      PI        A2 (4)
  140   120          10.8064026584         294.0571659117      PH        B1 (2)
  141   172          10.8064026584         294.0571659117      PH        B2 (3)
  142    55          10.9086144971         296.8384914439     SG+        A1 (1)
  143   210          11.0406804565         300.4321888976      DE        A2 (4)
  144    56          11.0406804565         300.4321888977      DE        A1 (1)
  145   173          11.2359578820         305.7459577943      PI        B2 (3)
  146   121          11.2359578820         305.7459577943      PI        B1 (2)
  147    57          11.5179762612         313.4200680364     SG+        A1 (1)
  148   122          11.8588791268         322.6965066141      PH        B1 (2)
  149   174          11.8588791268         322.6965066141      PH        B2 (3)
  150   211          12.1546879316         330.7458734149      DE        A2 (4)
  151    58          12.1546879316         330.7458734151      DE        A1 (1)
  152   175          12.5750175634         342.1836241784      PI        B2 (3)
  153   123          12.5750175634         342.1836241784      PI        B1 (2)
  154   212          12.8020738535         348.3621399419      DE        A2 (4)
  155    59          12.8020738535         348.3621399420      DE        A1 (1)
  156    60          12.9986032618         353.7099770222     SG+        A1 (1)
  157   124          13.4767039602         366.7197584291      PI        B1 (2)
  158   176          13.4767039602         366.7197584291      PI        B2 (3)
  159    61          14.6209505438         397.8562909203     SG+        A1 (1)
  160    62          17.7831077666         483.9029634801     SG+        A1 (1)
  161   125          19.1139834605         520.1179322454      PI        B1 (2)
  162   177          19.1139834605         520.1179322456      PI        B2 (3)
  163    63          20.5135905740         558.2031780197     SG+        A1 (1)
  164   213          26.4114230514         718.6913587925      DE        A2 (4)
  165    64          26.4114230515         718.6913587926      DE        A1 (1)
  166   178          26.8419968119         730.4078664702      PI        B2 (3)
  167   126          26.8419968119         730.4078664702      PI        B1 (2)
  168    65          27.5972326760         750.9588791266     SG+        A1 (1)
  169   179          33.7326864183         917.9130632396      PI        B2 (3)
  170   127          33.7326864183         917.9130632405      PI        B1 (2)
  171    66          34.6351805846         942.4711780170     SG+        A1 (1)
  172    67          36.3295584739         988.5775443851     SG+        A1 (1)
  173   214          47.0933035942        1281.4739396756      DE        A2 (4)
  174    68          47.0933035942        1281.4739396756      DE        A1 (1)
  175   128          47.3950742652        1289.6855371017      PI        B1 (2)
  176   180          47.3950742652        1289.6855371017      PI        B2 (3)
  177    69          48.1332064281        1309.7711343861     SG+        A1 (1)
  178    70          64.0377107092        1742.5546981659     SG+        A1 (1)
  179   129          66.6140488661        1812.6604235210      PI        B1 (2)
  180   181          66.6140488661        1812.6604235211      PI        B2 (3)
  181    71          67.6584851653        1841.0809800952     SG+        A1 (1)
  182   182          98.6108392372        2683.3373538781      PH        B2 (3)
  183   130          98.6108392372        2683.3373538781      PH        B1 (2)
  184   215          98.6262152559        2683.7557566189      DE        A2 (4)
  185    72          98.6262152559        2683.7557566189      DE        A1 (1)
  186   131          98.6648102473        2684.8059797278      PI        B1 (2)
  187   183          98.6648102473        2684.8059797279      PI        B2 (3)
  188    73          98.6860782895        2685.3847125789     SG+        A1 (1)
  189   184         103.2835405374        2810.4880204728      PH        B2 (3)
  190   132         103.2835405374        2810.4880204729      PH        B1 (2)
  191    74         103.3145108055        2811.3307643106      DE        A1 (1)
  192   216         103.3145108055        2811.3307643109      DE        A2 (4)
  193   185         103.3533343719        2812.3872072622      PI        B2 (3)
  194   133         103.3533343719        2812.3872072622      PI        B1 (2)
  195    75         103.3745526773        2812.9645867054     SG+        A1 (1)
  196   217         115.0904055006        3131.7691497382      DE        A2 (4)
  197    76         115.0904055006        3131.7691497383      DE        A1 (1)
  198   186         115.2995988953        3137.4615914067      PI        B2 (3)
  199   134         115.2995988953        3137.4615914067      PI        B1 (2)
  200    77         115.6737665269        3147.6432102856     SG+        A1 (1)
  201   187         116.9916457423        3183.5045268917      PI        B2 (3)
  202   135         116.9916457424        3183.5045268928      PI        B1 (2)
  203    78         117.7046197258        3202.9055353092     SG+        A1 (1)
  204    79         122.5383906267        3334.4391285632     SG+        A1 (1)
  205   218         198.5594386911        5403.0770139113      DE        A2 (4)
  206    80         198.5594386911        5403.0770139113      DE        A1 (1)
  207   136         198.7205014982        5407.4597557090      PI        B1 (2)
  208   188         198.7205014983        5407.4597557092      PI        B2 (3)
  209    81         199.0989972287        5417.7591481451     SG+        A1 (1)
  210    82         216.5412222052        5892.3862193311     SG+        A1 (1)
  211   189         225.0535950636        6124.0196608237      PI        B2 (3)
  212   137         225.0535950636        6124.0196608237      PI        B1 (2)
  213    83         225.8908727394        6146.8031446729     SG+        A1 (1)
  214   190         395.4520957740       10760.7985944408      PI        B2 (3)
  215   138         395.4520957741       10760.7985944429      PI        B1 (2)
  216    84         396.0364832498       10776.7005860986     SG+        A1 (1)
  217    85         509.1296648995       13854.1225118934     SG+        A1 (1)
  218    86         895.3722788540       24364.3183656275     SG+        A1 (1)


  VSCF finished.

 @CHECKOUT-I, Total execution time (CPU/WALL):       49.15/      11.63 seconds.
--executable xvscf finished with status     0 in       11.69 seconds (walltime).
 --invoking executable--
/nfs/workspaces/public/cfour_mpi/bin/xvtran
 @GETMEM-I,  Allocated    3814 MB of main memory.
  Full RHF integral transformation
  Transformation of IIII integrals :
  1 pass through the AO integral file was required.
     4537808 AO integrals were read.
     8764084 MO integrals were written to HF2.
  Transformation of IIJJ integrals :
  1 pass through the AO integral file was required.
    10281884 AO integrals were read.
    14554667 MO integrals were written to HF2.
  Transformation of IJIJ integrals :
  1 pass through the AO integral file was required.
    19512887 AO integrals were read.
    27283969 MO integrals were written to HF2.
  Transformation of IJKL integrals :
  1 pass through the AO integral file was required.
    14441729 AO integrals were read.
    18441106 MO integrals were written to HF2.
  Summary of active molecular orbitals: 
------------------------------------------------------------------------
 
  Index      Eigenvalue    Symmetry    Index      Eigenvalue    Symmetry
------------------------------------------------------------------------
     1       -20.6664134        1       110         4.1530738        2
     2       -11.4223289        1       111         4.1898311        2
     3        -1.4286664        1       112         4.8873929        2
     4        -0.7947635        1       113         4.9071319        2
     5        -0.5656818        1       114         5.6426660        2
     6        -0.5840617        2       115         6.0190225        2
     7        -0.5840617        3       116         6.2793673        2
     8         0.0627572        1       117         6.4167871        2
     9         0.0707222        1       118         7.1861360        2
    10         0.1570408        1       119         8.0452782        2
    11         0.2266884        1       120        10.0864251        2
    12         0.2281673        1       121        10.8064027        2
    13         0.2996933        1       122        11.2359579        2
    14         0.3835723        1       123        11.8588791        2
    15         0.5095555        1       124        12.5750176        2
    16         0.5424824        1       125        13.4767040        2
    17         0.5784793        1       126        19.1139835        2
    18         0.7608162        1       127        26.8419968        2
    19         0.7682064        1       128        33.7326864        2
    20         0.8350382        1       129        47.3950743        2
    21         0.8702817        1       130        66.6140489        2
    22         0.8822806        1       131        98.6108392        2
    23         1.1315436        1       132        98.6648102        2
    24         1.4288862        1       133       103.2835405        2
    25         1.5419370        1       134       103.3533344        2
    26         1.6581502        1       135       115.2995989        2
    27         1.7451894        1       136       116.9916457        2
    28         1.8266679        1       137       198.7205015        2
    29         2.0566353        1       138       225.0535951        2
    30         2.0948520        1       139       395.4520958        2
    31         2.1692255        1       140         0.0528383        3
    32         2.2999517        1       141         0.1066693        3
    33         2.3396590        1       142         0.1685208        3
    34         2.4881210        1       143         0.3065526        3
    35         2.7447742        1       144         0.3958319        3
    36         2.8859637        1       145         0.6260133        3
    37         3.4331389        1       146         0.7447250        3
    38         3.7055557        1       147         0.8059238        3
    39         3.9028170        1       148         0.8922591        3
    40         4.1979183        1       149         1.0480339        3
    41         4.2278214        1       150         1.4371641        3
    42         4.3206762        1       151         1.5696413        3
    43         4.3884352        1       152         1.7022319        3
    44         5.0285906        1       153         2.0379016        3
    45         5.1834646        1       154         2.2385216        3
    46         5.3795257        1       155         2.2935370        3
    47         5.8785374        1       156         2.3111996        3
    48         6.2272204        1       157         2.5576696        3
    49         6.2476049        1       158         2.7193897        3
    50         6.5456886        1       159         3.6749759        3
    51         6.6343232        1       160         4.0839814        3
    52         6.8686753        1       161         4.1530738        3
    53         7.5316205        1       162         4.1898311        3
    54         8.2020696        1       163         4.8873929        3
    55        10.2284327        1       164         4.9071319        3
    56        10.6123880        1       165         5.6426660        3
    57        10.9086145        1       166         6.0190225        3
    58        11.0406805        1       167         6.2793673        3
    59        11.5179763        1       168         6.4167871        3
    60        12.1546879        1       169         7.1861360        3
    61        12.8020739        1       170         8.0452782        3
    62        12.9986033        1       171        10.0864251        3
    63        14.6209505        1       172        10.8064027        3
    64        17.7831078        1       173        11.2359579        3
    65        20.5135906        1       174        11.8588791        3
    66        26.4114231        1       175        12.5750176        3
    67        27.5972327        1       176        13.4767040        3
    68        34.6351806        1       177        19.1139835        3
    69        36.3295585        1       178        26.8419968        3
    70        47.0933036        1       179        33.7326864        3
    71        48.1332064        1       180        47.3950743        3
    72        64.0377107        1       181        66.6140489        3
    73        67.6584852        1       182        98.6108392        3
    74        98.6262153        1       183        98.6648102        3
    75        98.6860783        1       184       103.2835405        3
    76       103.3145108        1       185       103.3533344        3
    77       103.3745527        1       186       115.2995989        3
    78       115.0904055        1       187       116.9916457        3
    79       115.6737665        1       188       198.7205015        3
    80       117.7046197        1       189       225.0535951        3
    81       122.5383906        1       190       395.4520958        3
    82       198.5594387        1       191         0.2266884        4
    83       199.0989972        1       192         0.5424824        4
    84       216.5412222        1       193         0.7608162        4
    85       225.8908727        1       194         0.8822806        4
    86       396.0364832        1       195         1.5419370        4
    87       509.1296649        1       196         1.7451894        4
    88       895.3722789        1       197         2.0948520        4
    89         0.0528383        2       198         2.1692255        4
    90         0.1066693        2       199         2.3396590        4
    91         0.1685208        2       200         2.8859637        4
    92         0.3065526        2       201         3.7055557        4
    93         0.3958319        2       202         4.1979183        4
    94         0.6260133        2       203         4.3206762        4
    95         0.7447250        2       204         5.0285906        4
    96         0.8059238        2       205         5.8785374        4
    97         0.8922591        2       206         6.2476049        4
    98         1.0480339        2       207         6.5456886        4
    99         1.4371641        2       208         6.8686753        4
   100         1.5696413        2       209        10.6123880        4
   101         1.7022319        2       210        11.0406805        4
   102         2.0379016        2       211        12.1546879        4
   103         2.2385216        2       212        12.8020739        4
   104         2.2935370        2       213        26.4114231        4
   105         2.3111996        2       214        47.0933036        4
   106         2.5576696        2       215        98.6262153        4
   107         2.7193897        2       216       103.3145108        4
   108         3.6749759        2       217       115.0904055        4
   109         4.0839814        2       218       198.5594387        4
------------------------------------------------------------------------
  -20.6664134318623       -11.4223289468512       -1.42866636822381     
 -0.794763462490472      -0.565681818242883      -0.584061717390935     
 -0.584061717390933       6.275723299955253E-002  7.072218425594239E-002
  0.157040837173145       0.226688388166158       0.228167277659653     
  0.299693313654169       0.383572291302666       0.509555498373808     
  0.542482374803315       0.578479297247854       0.760816210749127     
  0.768206435677359       0.835038186320369       0.870281650903408     
  0.882280633516990        1.13154356920356        1.42888622286813     
   1.54193695951939        1.65815016383849        1.74518939582308     
   1.82666788056043        2.05663527524090        2.09485202624495     
   2.16922546993480        2.29995174306639        2.33965898571302     
   2.48812102832428        2.74477415660173        2.88596369383378     
   3.43313890273359        3.70555570668457        3.90281701669451     
   4.19791829982932        4.22782143980641        4.32067615469066     
   4.38843523236812        5.02859059344635        5.18346464496477     
   5.37952569083197        5.87853738969800        6.22722040558416     
   6.24760488692779        6.54568855114106        6.63432320774318     
   6.86867527336894        7.53162046355232        8.20206957241811     
   10.2284327455894        10.6123879768823        10.9086144971189     
   11.0406804564627        11.5179762612272        12.1546879316346     
   12.8020738534727        12.9986032618338        14.6209505438191     
[...]
 Convergence information after    10 iterations: 
 Largest element of residual vector : -0.77812073E-05.
 Largest element of DIIS residual   : -0.60047028E-05.
 Convergence information after    11 iterations: 
 Largest element of residual vector : -0.38055390E-05.
 Largest element of DIIS residual   : -0.13467003E-05.
 Convergence information after    12 iterations: 
 Largest element of residual vector : -0.19423651E-05.
 Largest element of DIIS residual   :  0.79026168E-06.
 Convergence information after    13 iterations: 
 Largest element of residual vector :  0.66985484E-06.
 Largest element of DIIS residual   :  0.20480837E-06.
 Convergence information after    14 iterations: 
 Largest element of residual vector :  0.26856493E-06.
 Largest element of DIIS residual   :  0.10976279E-06.
 Convergence information after    15 iterations: 
 Largest element of residual vector :  0.69342736E-07.
 Largest element of DIIS residual   :  0.41777385E-07.
 Perturbed amplitude equations converged in    15 iterations.
  Dominant contributions to perturbed wavefunction:
    7    7  141   28  -0.2194499881 ABAB
    7    7   28  141  -0.2194499881 ABAB
    7    7  140   28  -0.1970025923 ABAB
    7    7   28  140  -0.1970025923 ABAB
    7    7  141   39   0.1783602148 ABAB
    7    7   39  141   0.1783602148 ABAB
    7    7  140   39   0.1542042228 ABAB
    7    7   39  140   0.1542042228 ABAB
    7    7  141   37  -0.1417909881 ABAB
    7    7   37  141  -0.1417909881 ABAB
    7    6   28   90  -0.1408123305 ABAB
    6    7   90   28  -0.1408123305 ABAB
    7    7  141   45   0.1388807120 ABAB
    7    7   45  141   0.1388807120 ABAB
    7    7  141   54  -0.1383675528 ABAB
    7    7   54  141  -0.1383675528 ABAB
    7    6   28   89  -0.1284821985 ABAB
    6    7   89   28  -0.1284821985 ABAB
    7    7  141   20  -0.1283045150 ABAB
    7    7   20  141  -0.1283045150 ABAB
  norm of converged amps    2.11711420845867     
 Starting iterative solution of the perturbed Lambda equations.
 The DIIS procedure is used to accelerate convergence.
 Convergence criterion is 10**(-7).
 Maximum number of iterations is 100.
 Convergence information after     1 iterations: 
 Largest element of residual vector :  0.60270306E-01.
 Largest element of DIIS residual   :  0.60270306E-01.
 Convergence information after     2 iterations: 
 Largest element of residual vector : -0.10629595E-01.
 Largest element of DIIS residual   :  0.67414716E-02.
 Convergence information after     3 iterations: 
 Largest element of residual vector : -0.48902676E-02.
 Largest element of DIIS residual   : -0.43393970E-02.
 Convergence information after     4 iterations: 
 Largest element of residual vector : -0.30103655E-02.
 Largest element of DIIS residual   : -0.24911970E-02.
 Convergence information after     5 iterations: 
 Largest element of residual vector : -0.19929040E-02.
 Largest element of DIIS residual   : -0.10617682E-02.
 Convergence information after     6 iterations: 
 Largest element of residual vector : -0.71148532E-03.
 Largest element of DIIS residual   : -0.23665330E-03.
 Convergence information after     7 iterations: 
 Largest element of residual vector : -0.21530136E-03.
 Largest element of DIIS residual   :  0.10411696E-03.
 Convergence information after     8 iterations: 
 Largest element of residual vector :  0.63887394E-04.
 Largest element of DIIS residual   :  0.33835717E-04.
 Convergence information after     9 iterations: 
 Largest element of residual vector :  0.20408131E-04.
 Largest element of DIIS residual   : -0.66081918E-05.
 Convergence information after    10 iterations: 
 Largest element of residual vector : -0.56511499E-05.
 Largest element of DIIS residual   : -0.49361847E-05.
 Convergence information after    11 iterations: 
 Largest element of residual vector : -0.27341219E-05.
 Largest element of DIIS residual   : -0.12774548E-05.
 Convergence information after    12 iterations: 
 Largest element of residual vector : -0.15784203E-05.
 Largest element of DIIS residual   :  0.11250935E-05.
 Convergence information after    13 iterations: 
 Largest element of residual vector :  0.84904016E-06.
 Largest element of DIIS residual   :  0.49124367E-06.
 Convergence information after    14 iterations: 
 Largest element of residual vector :  0.48855584E-06.
 Largest element of DIIS residual   :  0.26565842E-06.
 Convergence information after    15 iterations: 
 Largest element of residual vector :  0.17583067E-06.
 Largest element of DIIS residual   :  0.89373280E-07.
 Perturbed Lambda equations converged in    15 iterations.
  Dominant contributions to perturbed wavefunction:
    7    7  141   28  -0.2024215754 ABAB
    7    7   28  141  -0.2024215754 ABAB
    7    7  140   28  -0.1828868530 ABAB
    7    7   28  140  -0.1828868530 ABAB
    7    7  141   39   0.1628843536 ABAB
    7    7   39  141   0.1628843536 ABAB
    7    7  140   39   0.1417058047 ABAB
    7    7   39  140   0.1417058047 ABAB
    7    7  141   37  -0.1324555889 ABAB
    7    7   37  141  -0.1324555889 ABAB
    7    7  141   54  -0.1293740425 ABAB
    7    7   54  141  -0.1293740425 ABAB
    7    6   28   90  -0.1278347267 ABAB
    6    7   90   28  -0.1278347267 ABAB
    7    7  141   45   0.1243856883 ABAB
    7    7   45  141   0.1243856883 ABAB
    7    6   28   89  -0.1172422889 ABAB
    6    7   89   28  -0.1172422889 ABAB
    7    7  140   37  -0.1166381092 ABAB
    7    7   37  140  -0.1166381092 ABAB
        The DBOC first-order density matrix is being calculated 
             (Symmetry block 3, perturbation   2)
 term   5.12740014389172     
 final tnorm  0.867570187286526     
  norm contr. I: |<0|L dT/dx|0>|^2   0.000000000000000E+000
  norm contr. II: <0|[nabla(1+L)e-T][nabla e^T]|0>   5.12740014389172     
  total norm contribution   5.12740014389172     
 oo  8.237146969367549E-003
 vv  -34.1815256989628     
 vo  5.167970578836886E-002
  Correlated perturbed 1-el contribution to DBOC  -34.1216088462050       cm**-1
  SUM_I |dc_I/dx|^2 contribution to DBOC   17.1531980904112       cm**-1
 
 
  The total diagonal Born-Oppenheimer correction (DBOC) is:      0.0038675912 a.u.
  The total diagonal Born-Oppenheimer correction (DBOC) is:        848.838146 cm-1
 
 Total CC energy including DBOC  -113.244203991752     
 First-order density matrix is being calculated  (Symmetry block 3, perturbation   2)
 Calculation of the contributions of <pq||rs> to dI(i,j)/dx required   3.0 seconds.
 Calculation of the contributions of <pq||rs> to dI(a,b)/dx required  15.8 seconds.
 Calculation of the contributions of <pq||rs> to dI(i,a)/dx required   9.4 seconds.
 First-order Z-vector equations are solved for 1 perturbation.
 Convergence reached after  18 iterations.
        U*G(pq,rs) contribution is being calculated
             (Symmetry block 3, perturbation   2)

 CCSD contribution to force constants 

        0.0000000000        0.0000000000        0.0000000000
        0.0000000000        0.0000000000        0.0000000000
        0.0000000000        0.0000000000        0.0000000000
        0.0000000000        0.0000000000        0.0000000000
        0.0000000000        0.0000000000        0.0000000000
        0.0000000000        0.0000000000        0.0000000000
        0.0000000000        0.0000000000        0.0000000000
        0.0000000000        0.0000000000        0.0000000000
        0.0000000000        0.0000000000        0.0000000000
        0.0000000000        0.0000000000        0.0000000000
        0.0000000000        0.0000000000        0.0000000000
        0.0000000000        1.5742885566       -1.5742885566

 CCSD contribution to dipole derivatives 

        0.0000000000        0.0000000000        0.0000000000
        0.0000000000        0.0000000000        0.0000000000
        0.0000000000        0.0000000000        0.0000000000
        0.0000000000        0.0000000000       -0.0503372017
        0.0000000000        0.0000000000        0.0000000000
        0.0000000000        0.0000000000        0.0000000000
 @CHECKOUT-I, Total execution time (CPU/WALL):     1166.07/     460.89 seconds.
--executable xsdcc finished with status     0 in      461.16 seconds (walltime).
 --invoking executable--
/nfs/workspaces/public/cfour_mpi/bin/xanti
 @GETMEM-I,  Allocated    3814 MB of main memory.
 CCSD MO derivative gammas will be sorted to Mulliken order.
 @CHECKOUT-I, Total execution time (CPU/WALL):       13.14/      24.33 seconds.
--executable xanti finished with status     0 in       24.48 seconds (walltime).
 --invoking executable--
/nfs/workspaces/public/cfour_mpi/bin/xbcktrn
 @GETMEM-I,  Allocated    3814 MB of main memory.
 CCSD MO derivative gammas will be transformed to the AO basis.
 @CHECKOUT-I, Total execution time (CPU/WALL):       27.46/      12.47 seconds.
--executable xbcktrn finished with status     0 in       12.52 seconds (walltime).
 --invoking executable--
/nfs/workspaces/public/cfour_mpi/bin/xvdint
 @GETMEM-I,  Allocated    3814 MB of main memory.
 One- and two-electron integral derivatives are calculated
 for RHF-CC/MBPT hessians and dipole derivatives.
 Spherical gaussians are used.
  magnet F F
                    8722  records have been written to the Sort file.
  Total length of Sort file :             178609116  words.
 Evaluation of 2el integral derivatives

                      Two-electron integral gradient
                      ------------------------------

                         C #1 z     0.0000000000
                         O #2 z     0.0000000000


 C #1       0.0000000000           -0.2511043676            0.0000000000
 O #2       0.0000000000            0.2511043676            0.0000000000


 Evaluation of 2e integral derivatives required  363.67 seconds.
  contribution to Hessian
        0.0000000000        0.0000000000        0.0000000000
        0.0000000000       -0.2511043676        0.2511043676
 @CHECKOUT-I, Total execution time (CPU/WALL):      363.64/      73.64 seconds.
--executable xvdint finished with status     0 in       73.81 seconds (walltime).
 --invoking executable--
/nfs/workspaces/public/cfour_mpi/bin/xanti
 @GETMEM-I,  Allocated    3814 MB of main memory.
 CCSD MO gammas will be sorted to Mulliken order.
 @CHECKOUT-I, Total execution time (CPU/WALL):       16.93/      47.14 seconds.
--executable xanti finished with status     0 in       47.30 seconds (walltime).
 --invoking executable--
/nfs/workspaces/public/cfour_mpi/bin/xbcktrn
 @GETMEM-I,  Allocated    3814 MB of main memory.
 CCSD MO gammas will be transformed to the AO basis.
 @CHECKOUT-I, Total execution time (CPU/WALL):       47.19/       8.56 seconds.
--executable xbcktrn finished with status     0 in        8.64 seconds (walltime).
 --invoking executable--
/nfs/workspaces/public/cfour_mpi/bin/xvdint
 @GETMEM-I,  Allocated    3814 MB of main memory.
 One- and two-electron integral derivatives are calculated
 for RHF-CC/MBPT hessians and dipole derivatives.
 Spherical gaussians are used.
  magnet F F

                     Kinetic energy integral gradient
                     --------------------------------

                         C #1 z    -1.0988028414
                         O #2 z     1.0988028414


 C #1       0.0000000000            0.0000000000           -1.0988028414
 O #2       0.0000000000            0.0000000000            1.0988028414



                   Nuclear attraction integral gradient
                   ------------------------------------

                         C #1 z    19.9556568623
                         O #2 z   -19.9556568623


 C #1       0.0000000000            0.0000000000           19.9556568623
 O #2       0.0000000000            0.0000000000          -19.9556568623



                      Reorthonormalization gradient
                      -----------------------------

                         C #1 z     0.0000000000
                         O #2 z     0.0000000000


 C #1       0.0000000000            0.0000000000            0.0000000000
 O #2       0.0000000000            0.0000000000            0.0000000000



                     Kinetic energy integral Hessian
                     -------------------------------


           Symmetry 1

           C #1 z      O #2 z

 C #1 z    1.003095
 O #2 z   -1.003095    1.003095


           Symmetry 2

           C #1 x      O #2 x

 C #1 x   -1.195475
 O #2 x    1.195475   -1.195475


           Symmetry 3

           C #1 y      O #2 y

 C #1 y   -1.195475
 O #2 y    1.195475   -1.195475




           C #1 x      C #1 y      C #1 z      O #2 x      O #2 y      O #2 z

 C #1 x   -1.195475
 C #1 y    0.000000   -1.195475
 C #1 z    0.000000    0.000000    1.003095

 O #2 x    1.195475    0.000000    0.000000   -1.195475
 O #2 y    0.000000    1.195475    0.000000    0.000000   -1.195475
 O #2 z    0.000000    0.000000   -1.003095    0.000000    0.000000    1.003095




                   Nuclear attraction integral Hessian
                   -----------------------------------


           Symmetry 1

           C #1 z      O #2 z

 C #1 z  -12.132077
 O #2 z   12.132077  -12.132077


           Symmetry 2

           C #1 x      O #2 x

 C #1 x   14.900447
 O #2 x  -14.900447   14.900447


           Symmetry 3

           C #1 y      O #2 y

 C #1 y   14.900447
 O #2 y  -14.900447   14.900447




           C #1 x      C #1 y      C #1 z      O #2 x      O #2 y      O #2 z

 C #1 x   14.900447
 C #1 y    0.000000   14.900447
 C #1 z    0.000000    0.000000  -12.132077

 O #2 x  -14.900447    0.000000    0.000000   14.900447
 O #2 y    0.000000  -14.900447    0.000000    0.000000   14.900447
 O #2 z    0.000000    0.000000   12.132077    0.000000    0.000000  -12.132077




                Highest order reorthonormalization Hessian
                ------------------------------------------


           Symmetry 1

           C #1 z      O #2 z

 C #1 z    0.000000
 O #2 z    0.000000    0.000000


           Symmetry 2

           C #1 x      O #2 x

 C #1 x    0.000000
 O #2 x    0.000000    0.000000


           Symmetry 3

           C #1 y      O #2 y

 C #1 y    0.000000
 O #2 y    0.000000    0.000000




           C #1 x      C #1 y      C #1 z      O #2 x      O #2 y      O #2 z




                Electronic contributions to dipole moment
                -----------------------------------------

                               au             Debye

                    z     -0.83363811     -2.11889710

  Conversion factor used: 1 a.u. =   2.54174691 Debye 



   Electronic contributions to static part of dipole moment derivatives
   --------------------------------------------------------------------


                     Total dipole moment derivatives
                     -------------------------------


           Symmetry 1
                              Ez

               C #1 z    -5.64749157
               O #2 z    -8.35250843

           Symmetry 2
                              Ex

               C #1 x    -5.71939914
               O #2 x    -8.28060086

           Symmetry 3
                              Ey

               C #1 y    -5.71939914
               O #2 y    -8.28060086



                       Ex          Ey          Ez

      C #1    x   -5.719399    0.000000    0.000000
      C #1    y    0.000000   -5.719399    0.000000
      C #1    z    0.000000    0.000000   -5.647492

      O #2    x   -8.280601    0.000000    0.000000
      O #2    y    0.000000   -8.280601    0.000000
      O #2    z    0.000000    0.000000   -8.352508

 Evaluation of 1e integral derivatives required    1.76 seconds.
                    8815  records have been written to the Sort file.
  Total length of Sort file :             180513570  words.
 Evaluation of 2el integral derivatives

                      Two-electron integral gradient
                      ------------------------------

                         C #1 z    -9.8964508078
                         O #2 z     9.8964508078


 C #1       0.0000000000            0.0000000000           -9.8964508078
 O #2       0.0000000000            0.0000000000            9.8964508078


 Evaluation of 2e integral derivatives required  709.85 seconds.

                            Molecular gradient
                            ------------------

                         C #1 z     0.6583295071
                         O #2 z    -0.6583295071


 C #1       0.0000000000            0.0000000000            0.6583295071
 O #2       0.0000000000            0.0000000000           -0.6583295071


  Molecular gradient norm 0.931E+00

                            Molecular hessian
                            -----------------


           Symmetry 1

           C #1 z      O #2 z

 C #1 z   44.619721
 O #2 z  -44.619721   44.619721


           Symmetry 2

           C #1 x      O #2 x

 C #1 x   -1.046303
 O #2 x    1.046303   -1.046303


           Symmetry 3

           C #1 y      O #2 y

 C #1 y   -1.046303
 O #2 y    1.046303   -1.046303




           C #1 x      C #1 y      C #1 z      O #2 x      O #2 y      O #2 z

 C #1 x   -1.046303
 C #1 y    0.000000   -1.046303
 C #1 z    0.000000    0.000000   44.619721

 O #2 x    1.046303    0.000000    0.000000   -1.046303
 O #2 y    0.000000    1.046303    0.000000    0.000000   -1.046303
 O #2 z    0.000000    0.000000  -44.619721    0.000000    0.000000   44.619721




                           Total dipole moment
                           -------------------

                               au             Debye

                    z      0.12779062      0.32481141

  Conversion factor used: 1 a.u. =   2.54174691 Debye 



                     Total dipole moment derivatives
                     -------------------------------


           Symmetry 1
                              Ez

               C #1 z     0.70585172
               O #2 z    -0.70585172

           Symmetry 2
                              Ex

               C #1 x     0.05394462
               O #2 x    -0.05394462

           Symmetry 3
                              Ey

               C #1 y     0.05394462
               O #2 y    -0.05394462



                       Ex          Ey          Ez

      C #1    x    0.053945    0.000000    0.000000
      C #1    y    0.000000    0.053945    0.000000
      C #1    z    0.000000    0.000000    0.705852

      O #2    x   -0.053945    0.000000    0.000000
      O #2    y    0.000000   -0.053945    0.000000
      O #2    z    0.000000    0.000000   -0.705852

 @CHECKOUT-I, Total execution time (CPU/WALL):      711.60/     123.77 seconds.
--executable xvdint finished with status     0 in      123.94 seconds (walltime).
 --invoking executable--
/nfs/workspaces/public/cfour_mpi/bin/xjoda
  @GTFLGS-I, Hessian will be transformed to curvilinear coordinates.
  @GTFLGS-I, Hessian will be transformed to curvilinear coordinates.
  igrd and ihes are                      0                     1
  gradient from JOBARC 
   0.000000000000000   0.000000000000000   0.658329507060180
   0.000000000000000   0.000000000000000  -0.658329507060180
 
  @PROJFCM-I, Projecting force constant matrix onto totally symmetric subspace.
  Largest difference between matrix elements of symmetrized
  and unsymmetrized FCM :     0.4930211794E-10.
  read isotopes from ZMAT file 
 
  Summary of diagonal Born-Oppenheimer correction at the correlated level
  The total diagonal Born-Oppenheimer correction (DBOC) is:      0.0038675912 a.u.
  The total diagonal Born-Oppenheimer correction (DBOC) is:        848.838146 cm-1
  The total diagonal Born-Oppenheimer correction (DBOC) is:            10.154 kJ/mole
  hellooooooo 
  readis is  F
 
 @CHECKOUT-I, Total execution time (CPU/WALL):        0.01/       0.05 seconds.
--executable xjoda finished with status     0 in        0.14 seconds (walltime).
  The final electronic energy is      -113.244203991752428 a.u. 
  This computation required                         4180.72 seconds (walltime).
