 --invoking executable--
/nfs/workspaces/public/cfour_mpi/bin/xjoda


   *************************************************************************
         <<<     CCCCCC     CCCCCC   |||     CCCCCC     CCCCCC   >>>
       <<<      CCC        CCC       |||    CCC        CCC         >>>
      <<<      CCC        CCC        |||   CCC        CCC            >>>
    <<<        CCC        CCC        |||   CCC        CCC              >>>
      <<<      CCC        CCC        |||   CCC        CCC            >>>
       <<<      CCC        CCC       |||    CCC        CCC         >>>
         <<<     CCCCCC     CCCCCC   |||     CCCCCC     CCCCCC   >>>
   *************************************************************************

     ****************************************************************
     * CFOUR Coupled-Cluster techniques for Computational Chemistry *
     ****************************************************************
 

   Department of Chemistry                Institut fuer Physikalische Chemie
   University of Florida                  Universitaet Mainz
   Gainesville, FL 32611, USA             D-55099 Mainz, Germany

   Department of Chemistry                Fakultaet fuer Chemie und Biowiss.
   Johns Hopkins University               Karlsruher Institut fuer Technologie
   Baltimore, MD 21218, USA               D-76131 Karlsruhe, Germany

   Department of Chemistry                Department of Physical Chemistry
   Southern Methodist University          Eotvos Lorand University
   Dallas, TX 75275, USA                  H-1053 Budapest, Hungary

 
                       Version 2.1
 
                     vincent.theory.phys.ucl.ac.uk                     
                     Sat  1 Mar 20:32:52 GMT 2025                      
                     integer*8 version is running
 
********************************************************************************
*                          Input from ZMAT file                                *
********************************************************************************
Carbon Monoxide DBOC calculation                                                
C                                                                               
O 1 r                                                                           
                                                                                
r=1.12825                                                                       
                                                                                
                                                                                
*CFOUR(CALC=CCSD,BASIS=AUG-PCVQZ,SCF_CONV=10                                    
CC_CONV=14,DBOC=ON,MEMORY=500000000                                             
ZFIELD=200)                                                                     
                                                                                
%isotopes                                                                       
12                                                                              
18                                                                              
********************************************************************************
  @GTFLGS-I, Hessian will be transformed to curvilinear coordinates.
    -------------------------------------------------------------------
                    CFOUR Control Parameters 
    -------------------------------------------------------------------
        External           Internal           Value            Units
          Name               Name
    -------------------------------------------------------------------
       ABCDTYPE             IABCDT         STANDARD    [  0]    ***   
       ANHARMONIC           IANHAR         OFF         [  0]    ***   
       ANH_ALGORIT          IANALG         STANDARD    [  0]    ***   
       ANH_DERIVAT          IANDER         SECOND      [  1]    ***   
       ANH_MODE             ANHMOD         VIBRATION   [  0]    ***   
       ANH_STEPSIZ          ICUBST             50000          x 10-6  
       ANH_SYMMETR          IANHSM         ABELIAN     [  0]    ***   
       AO_LADDERS           IAOLAD         SINGLEPASS  [  1]    ***   
       AV_SCF               IAVSCF         OFF         [  0]    ***   
       BASIS                IBASIS         AUG-PCVQZ   [ 52]    ***   
       BOTHVECTORS          BOTHVC         OFF         [  0]    ***   
       BOX_POTENT           IPIAB          OFF         [  0]    ***   
       BREIT                IBREIT         OFF         [  0]    ***   
       BRUCK_CONV           IBRTOL          10D-  4             ***   
       BRUECKNER            IBRKNR         OFF         [  0]    ***   
       BUFFERSIZE           IBUFFS              4096            ***   
       CACHE_RECS           ICHREC             10               ***   
       CALCLEVEL            ICLLVL         CCSD        [ 10]    ***   
       CCORBOPT             ICCORB         OFF         [  0]  x 0.01  
       CC_CONV              ICCCNV          10D- 14             ***   
       CC_EXPORDER          ICCEOR              5               ***   
       CC_EXTRAPOL          ICCEXT         DIIS        [  1]    ***   
       CC_GUESS             ICCGES         MP2         [  0]    ***   
       CC_MAXCYC            ICCCYC            100              cycles 
       CC_PROGRAM           ICCPRO         VCC         [  0]    ***   
       CHARGE               ICHRGE              0               ***   
       CHOLESKY             ICHOLE         OFF         [  0]    ***   
       CIS_CONV             ICISTL              5               ***   
       COMM_SIZE            IPSIZE            ***               ***   
       CONSTANT             ICONST         OLD         [  1]    ***   
       CONTINUUM            ICONTU         NONE        [  0]    ***   
       CONTRACTION          ICNTYP         GENERAL     [  1]    ***   
       COORDINATES          ICOORD         INTERNAL    [  0]    ***   
       CPHF_CONVER          ICPHFT          10D- 16             ***   
       CPHF_MAXCYC          ICPHFC             64              cycles 
       CUBIC                ICUBIC         OFF         [  0]    ***   
       CURVILINEAR          ICURVY         ON          [  1]    ***   
       DBOC                 IDBOC          ON          [  1]    ***   
       DCT                  IDCT           OFF         [  0]    ***   
       DERIV_LEV            IDRLVL         SECOND      [  2]    ***   
       DEVMEM_SIZE          IDVMEM          50000000           MByte  
       DIAG_MRCC            IEOMST          10D-  0             ***   
       DIFF_TYPE            IDIFTY         RELAXED     [  0]    ***   
       DIRECT               IDIRCT         OFF         [  0]    ***   
       DROPMO               IDRPMO      NONE         
       ECP                  IECP           OFF         [  0]    ***   
       EIGENVECTOR          IVEC                1               ***   
       EL_ANHARM            IELANH         OFF         [  0]    ***   
       EOMFOLLOW            IEOMSR         ENERGY      [  0]    ***   
       EOMIP                IEOMIP         OFF         [  0]    ***   
       EOMLEVEL             HBARFM         SAME        [  0]    ***   
       EOM_MRCC             IMRCCE         NEW         [  1]    ***   
       EOM_NONIT            EOMNON         OFF         [  0]    ***   
       EOM_NSING            IEOMSI          10D-  0             ***   
       EOM_NSTATES          IMRCCD         DAVIDSON    [  0]    ***   
       EOM_NTRIP            IEOMTR          10D-  0             ***   
       EOM_ORDER            IEXORD         ENERGY      [  0]    ***   
       EOM_PROPSTA          IEOMST              0               ***   
       ESTATE_CONV          IEXTOL          10D-  5             ***   
       ESTATE_DIAG          IEXDIG         ITERATIVE   [  0]    ***   
       ESTATE_LOCK          IESLOC         ON          [  1]    ***   
       ESTATE_MAXC          IEXMXC             40               ***   
       ESTATE_PROP          IEXPRP         OFF         [  0]    ***   
       EVAL_HESS            IRECAL              0            # of cyc.
       EXCITATION           IEXCIT              0               ***   
       EXCITE               IEXCIT         NONE        [  0]    ***   
       EXTERN_POT           IEXPOT         OFF         [  0]    ***   
       FCGRADNEW            IFCGNW         OFF         [  0]    ***   
       FC_FIELD             IFINFC              0             x 10-6  
       FD_CALTYPE           IFDCAL         GRADONLY    [  0]    ***   
       FD_PROJECT           IFDPRJ         OFF         [  1]    ***   
       FD_STEPSIZE          IDISFD              0            10-4 bohr
       FD_USEGROUP          IFDGRP         FULL        [  0]    ***   
       FILE_RECSIZ          IFLREC              4096           words  
       FINITE_PERT          IFIPER              0             x 10-6  
       FIXGEOM              IFIXGM         OFF         [  0]    ***   
       FOCK                 IFOCK          AO          [  1]    ***   
       FREQ_ALGORI          IVIALG         STANDARD    [  0]    ***   
       FROZEN_CORE          IFROCO         OFF         [  0]    ***   
       GAMMA_ABCD           IGABCD         STORE       [  0]    ***   
       GAMMA_ABCI           IGABCI         STORE       [  0]    ***   
       GENBAS_1             IGNBS1              0               ***   
       GENBAS_2             IGNBS2              0               ***   
       GENBAS_3             IGNBS3              0               ***   
       GENBAS_4             IGNBS4              0               ***   
       GEO_CONV             ICONTL              5              H/bohr 
       GEO_MAXCYC           IOPTCY             50               ***   
       GEO_MAXSTEP          IMXSTP            300            millibohr
       GEO_METHOD           INR            SINGLE_POINT[  5]    ***   
       GIAO                 IGIAO          OFF         [  1]    ***   
       GIMIC                IGIMIC         OFF         [  0]    ***   
       GRID                 IGRID          OFF         [  0]    ***   
       GRID_ALGO            IGALGO         SERIAL      [  0]    ***   
       GUESS                IGUESS         MOREAD      [  0]    ***   
       HBAR                 IHBAR          OFF         [  0]    ***   
       HESS_TYPE            IHESTP         SCF         [  0]    ***   
       HF2_FILE             IHF2Fl         USE         [  1]    ***   
       HFSTABILITY          ISTABL         OFF         [  0]    ***   
       INCORE               INCORE         OFF         [  0]    ***   
       INPUT_MRCC           IMRCC          ON          [  1]    ***   
       INTEGRALS            INTTYP         VMOL        [  1]    ***   
       JODA_PRINT           IJPRNT              0               ***   
       KEYWORD_OUT          IDMPKW         NO          [  0]    ***   
       LINDEP_TOL           ILINDP              8               ***   
       LINEQ_CONV           IZTACN          10D-  7           cycles  
       LINEQ_EXPOR          ILMAXD              5               ***   
       LINEQ_MAXCY          ILMAXC            100               ***   
       LINEQ_TYPE           ILTYPE         DIIS        [  1]    ***   
       LOCK_ORBOCC          ILOCOC         OFF         [  0]    ***   
       MEMORY_SIZE          IMEMSZ         500000000           words  
       MEM_UNIT             IMEMU          INTEGERWORDS[  0]    ***   
       MRCC                 IMRCCC         OFF         [  0]    ***   
       MULTIPLICTY          IMULTP              1               ***   
       NACOUPLING           IVCOUP         OFF         [  0]    ***   
       NEGEVAL              IDIE           ABORT       [  0]    ***   
       NEWNORM              INEWNO         OFF         [  0]    ***   
       NON-HF               INONHF         OFF         [  0]    ***   
       NTOP_TAMP            ITOPT2             15               ***   
       NUC_MODEL            INUCMO         POINT       [  0]    ***   
       OCCUPATION           IOCCU   ESTIMATED BY SCF 
       OPEN-SHELL           IOPEN          SPIN-ORBITAL[  0]    ***   
       OPTVIB               IOPTVB         OFF         [  0]    ***   
       ORBITALS             IORBTP         STANDARD    [  0]    ***   
       PARALLEL             IPARAL         ON          [  1]    ***   
       PARA_INT             IPINTS         ON          [  1]    ***   
       PARA_PRINT           IPPRIN              0               ***   
       PERT_ORB             IPTORB         STANDARD    [  0]    ***   
       POINTS               IGRDFD              0               ***   
       PRINT                IPRNT               0               ***   
       PROPS                IPROPS         OFF         [  0]    ***   
       PROP_INTEGR          IINTYP         INTERNAL    [  0]    ***   
       PSI                  IPSI           OFF         [  0]    ***   
       QC_ALG               IQCALG         FLM         [  0]    ***   
       QC_LINALG            IQCLIN         TRIDIAG     [  2]    ***   
       QC_MAXCYC            IQCMAX          10D-100           cycles  
       QC_MAXSCFCY          IQCMSC          10D- 15           cycles  
       QC_RTRUST            IQCRTR          10D-  0           x 10-3  
       QC_SKIPSCF           IQCSKI         OFF         [  0]    ***   
       QC_START             IQCSTA          10D-  1             ***   
       QRHFGUESS            IQGUES         OFF         [  0]    ***   
       QUARTIC              IQUART         OFF         [  0]    ***   
       RAMAN_INT            IRAMIN         OFF         [  0]    ***   
       RAMAN_ORB            IRAMRE         UNRELAXED   [  0]    ***   
       RDO                  IRDOFM         ON          [  1]    ***   
       REDUCE_REPR          REDREP         Ir          [  0]    ***   
       REFERENCE            IREFNC         RHF         [  0]    ***   
       RELATIVIST           IRELAT         OFF         [  0]    ***   
       RELAX_DENS           IRDENS         ON          [  1]    ***   
       RESET_FLAGS          IRESET         OFF         [  0]    ***   
       RESTART_CC           ICCRES         OFF         [  0]    ***   
       ROT_EVEC             ROTVEC              0               ***   
       SAVE_INTS            ISVINT         OFF         [  0]    ***   
       SCALE_ON             ISTCRT              0               ***   
       SCF_CONV             ISCFCV          10D- 10             ***   
       SCF_DAMPING          IDAMP               0             x 10-3  
       SCF_EXPORDE          IRPPOR              6               ***   
       SCF_EXPSTAR          IRPPLS              8               ***   
       SCF_EXTRAPO          IRPP           ON          [  1]    ***   
       SCF_MAXCYC           ISCFCY            150              cycles 
       SCF_NOSTOP           ISCFST         OFF         [  0]    ***   
       SCF_PRINT            ISCFPR              0               ***   
       SCF_PROG             ISCFPR         SCF         [  0]    ***   
       SD_FIELD             IFINSD              0             x 10-6  
       SOPERT               IPERSO         OFF         [  0]    ***   
       SPHERICAL            IDFGHI         ON          [  1]    ***   
       SPINORBIT            ISOCAL         OFF         [  0]    ***   
       SPINROTATIO          ISRCON         OFF         [  0]    ***   
       SPIN_FLIP            ISPFLP         OFF         [  0]    ***   
       SPIN_ORBIT           ISPORB         OFF         [  0]    ***   
       SPIN_SCAL            ISCSMP         OFF         [  0]    ***   
       STEEPSCALE           ISTPSC              1000          x 10-3  
       SUBGROUP             ISUBGP         DEFAULT     [  0]    ***   
       SUBGRPAXIS           ISBXYZ         X           [  0]    ***   
       SYMMETRY             ISYM           ON          [  0]    ***   
       SYM_CHECK            ISYMCK         OVERRIDE    [  1]    ***   
       T3_EXTRAPOL          IT3EXT         OFF         [  0]    ***   
       T4_EXTRAPOL          IT4EXP         OFF         [  0]    ***   
       TAMP_SUM             IEVERY              5               ***   
       TESTSUITE            ITESTS         OFF         [  0]    ***   
       THERMOCH             ITHERM         OFF         [  0]    ***   
       TOL_CHOLESK          ITOLCH          10D-  4             ***   
       TRANGRAD             IRESRM         OFF         [  0]    ***   
       TRANS_INV            ITRAIN         IGNORE      [  1]    ***   
       TREAT_PERT           ITREAT         SIMULTANEOUS[  0]    ***   
       TRIP_ALGORI          ITRALG         NORMAL      [  0]    ***   
       UIJ_THRESHO          IUIJTH              1               ***   
       UNITS                IUNITS         ANGSTROM    [  0]    ***   
       UNOS                 IUNOS          OFF         [  0]    ***   
       UPDATE_HESS          IHUPDT         ON          [  1]    ***   
       VIBPHASE             ISETPH         STANDARD    [  0]    ***   
       VIBRATION            IVIB           ANALYTIC    [  1]    ***   
       VIB_ALGORIT          IGEALG         STANDARD    [  0]    ***   
       VNATORB              IVNORB         OFF         [  0]    ***   
       VTRAN                IVTRAN         FULL/PARTIAL[  0]    ***   
       XFIELD               IXEFLD              0             x 10-6  
       XFORM_TOL            IXFTOL          10D- 11             ***   
       YFIELD               IYEFLD              0             x 10-6  
       ZFIELD               IZEFLD            200             x 10-6  
       ZSCALE_EXP           IZEXPS         OFF         [  0]    ***   
    -------------------------------------------------------------------
   2 entries found in Z-matrix 
   Job Title : Carbon Monoxide DBOC calculation                                                
   There are  1 unique internal coordinates.
   Of these,  0 will be optimized.
   User supplied Z-matrix: 
--------------------------------------------------------------------------------
       SYMBOL    BOND      LENGTH    ANGLE     ANGLE     DIHED     ANGLE
                  TO      (ANGST)    WRT      (DEG)      WRT      (DEG)
--------------------------------------------------------------------------------
        C    
        O          1         r    
                  *Initial values for internal coordinates* 
                      Name             Value
                        r               1.1282500000
--------------------------------------------------------------------------------
  read isotopes from ZMAT file 
   Rotational constants (in cm-1): 
          1.8393377259             1.8393377259
   Rotational constants (in MHz): 
      55141.9655206801         55141.9655206801
********************************************************************************
   The full molecular point group is CXv .
   The largest Abelian subgroup of the full molecular point group is C2v .
   The computational point group is C2v .
********************************************************************************
--------------------------------------------------------------------------------
   Analysis of internal coordinates specified by Z-matrix 
--------------------------------------------------------------------------------
   *The nuclear repulsion energy is   22.513184843784618 a.u.
   *There is   1 degree of freedom within the tot. symm. molecular subspace.
   *Z-matrix requests optimization of   0 coordinates.
   *The optimization is constrained.
   *The following   1 parameters can have non-zero 
    derivatives within the totally symmetric subspace:
             r    [ 1]
   *The following   0 parameters are to be optimized:

   *The following coordinates must be varied in an  unconstrained optimization.
             r    [ 1]
--------------------------------------------------------------------------------


 ----------------------------------------------------------------
         Coordinates used in calculation (QCOMP) 
 ----------------------------------------------------------------
 Z-matrix   Atomic            Coordinates (in bohr)
  Symbol    Number           X              Y              Z
 ----------------------------------------------------------------
     C         6        -0.00000000     0.00000000     1.27922650
     O         8         0.00000000     0.00000000    -0.85285745
 ----------------------------------------------------------------
 
   Interatomic distance matrix (Angstroms) 
 
                 C             O    
                [ 1]        [ 2]
  C    [ 1]     0.00000
  O    [ 2]     1.12825     0.00000
 rotcon2
   Rotational constants (in cm-1): 
          1.8393377259             0.0000000000
   Rotational constants (in MHz): 
      55141.9655206801             0.0000000000
  ECPDATA file not present.   Using default ECPDATA. 
  @GTFLGS-I, Hessian will be transformed to curvilinear coordinates.
  There are  218 basis functions.
 @CHECKOUT-I, Total execution time (CPU/WALL):        0.41/       0.48 seconds.
--executable xjoda finished with status     0 in        0.52 seconds (walltime).
 --invoking executable--
/nfs/workspaces/public/cfour_mpi/bin/xvmol
 SERIAL VERSION OF MOLECULE STARTED
********************************************************************************
                    INPUT FROM MOL FILE
********************************************************************************
INTGRL        1    0    1    0    0    0    0    0    0                         
         *** CFOUR Program System (Release V0.1) ***                            
Carbon Monoxide DBOC calculation                                                
    2    2 X  Y       0.10E-08              0    0                              
   9999.00      3.00                                                            
          6.00000000    1    5    1    1    1    1    1                         
C #1  -0.000000000000000   0.000000000000000   1.279226496685937                
   16    9                                                                      
   33980.0000000000       9.100000000000000E-005 -1.900000000000000E-005        
  0.000000000000000E+000  0.000000000000000E+000  0.000000000000000E+000        
  0.000000000000000E+000  0.000000000000000E+000  0.000000000000000E+000        
  0.000000000000000E+000                                                        
   5089.00000000000       7.040000000000000E-004 -1.510000000000000E-004        
  0.000000000000000E+000  0.000000000000000E+000  0.000000000000000E+000        
  0.000000000000000E+000  0.000000000000000E+000  0.000000000000000E+000        
  0.000000000000000E+000                                                        
   1157.00000000000       3.693000000000000E-003 -7.850000000000000E-004        
  0.000000000000000E+000  0.000000000000000E+000  0.000000000000000E+000        
  0.000000000000000E+000  0.000000000000000E+000  0.000000000000000E+000        
  0.000000000000000E+000                                                        
   326.600000000000       1.536000000000000E-002 -3.324000000000000E-003        
  0.000000000000000E+000  0.000000000000000E+000  0.000000000000000E+000        
  0.000000000000000E+000  0.000000000000000E+000  0.000000000000000E+000        
  0.000000000000000E+000                                                        
   106.100000000000       5.292900000000000E-002 -1.151200000000000E-002        
  0.000000000000000E+000  0.000000000000000E+000  0.000000000000000E+000        
  0.000000000000000E+000  0.000000000000000E+000  0.000000000000000E+000        
  0.000000000000000E+000                                                        
   38.1100000000000       0.147043000000000      -3.416000000000000E-002        
  0.000000000000000E+000  0.000000000000000E+000  0.000000000000000E+000        
  0.000000000000000E+000  0.000000000000000E+000  0.000000000000000E+000        
  0.000000000000000E+000                                                        
   14.7500000000000       0.305631000000000      -7.717300000000001E-002        
  0.000000000000000E+000  0.000000000000000E+000  0.000000000000000E+000        
  0.000000000000000E+000  0.000000000000000E+000  0.000000000000000E+000        
  0.000000000000000E+000                                                        
   6.03500000000000       0.399345000000000      -0.141493000000000             
  0.000000000000000E+000  0.000000000000000E+000  0.000000000000000E+000        
  0.000000000000000E+000  0.000000000000000E+000  0.000000000000000E+000        
  0.000000000000000E+000                                                        
   2.53000000000000       0.217051000000000      -0.118019000000000             
  0.000000000000000E+000  0.000000000000000E+000  0.000000000000000E+000        
  0.000000000000000E+000  0.000000000000000E+000  0.000000000000000E+000        
  0.000000000000000E+000                                                        
  0.735500000000000       1.589400000000000E-002  0.273806000000000             
   1.00000000000000       0.000000000000000E+000  0.000000000000000E+000        
  0.000000000000000E+000  0.000000000000000E+000  0.000000000000000E+000        
  0.000000000000000E+000                                                        
  0.290500000000000      -3.084000000000000E-003  0.586510000000000             
  0.000000000000000E+000   1.00000000000000       0.000000000000000E+000        
  0.000000000000000E+000  0.000000000000000E+000  0.000000000000000E+000        
  0.000000000000000E+000                                                        
  0.111100000000000       9.779999999999999E-004  0.285430000000000             
  0.000000000000000E+000  0.000000000000000E+000   1.00000000000000             
  0.000000000000000E+000  0.000000000000000E+000  0.000000000000000E+000        
  0.000000000000000E+000                                                        
   7.21600000000000       0.000000000000000E+000  0.000000000000000E+000        
  0.000000000000000E+000  0.000000000000000E+000  0.000000000000000E+000        
   1.00000000000000       0.000000000000000E+000  0.000000000000000E+000        
  0.000000000000000E+000                                                        
   19.5700000000000       0.000000000000000E+000  0.000000000000000E+000        
  0.000000000000000E+000  0.000000000000000E+000  0.000000000000000E+000        
  0.000000000000000E+000   1.00000000000000       0.000000000000000E+000        
  0.000000000000000E+000                                                        
   53.0730000000000       0.000000000000000E+000  0.000000000000000E+000        
  0.000000000000000E+000  0.000000000000000E+000  0.000000000000000E+000        
  0.000000000000000E+000  0.000000000000000E+000   1.00000000000000             
  0.000000000000000E+000                                                        
  4.145000000000000E-002  0.000000000000000E+000  0.000000000000000E+000        
  0.000000000000000E+000  0.000000000000000E+000  0.000000000000000E+000        
  0.000000000000000E+000  0.000000000000000E+000  0.000000000000000E+000        
   1.00000000000000                                                             
   10    8                                                                      
   34.5100000000000       5.378000000000000E-003  0.000000000000000E+000        
  0.000000000000000E+000  0.000000000000000E+000  0.000000000000000E+000        
  0.000000000000000E+000  0.000000000000000E+000  0.000000000000000E+000        
   7.91500000000000       3.613200000000000E-002  0.000000000000000E+000        
  0.000000000000000E+000  0.000000000000000E+000  0.000000000000000E+000        
  0.000000000000000E+000  0.000000000000000E+000  0.000000000000000E+000        
   2.36800000000000       0.142493000000000       0.000000000000000E+000        
  0.000000000000000E+000  0.000000000000000E+000  0.000000000000000E+000        
  0.000000000000000E+000  0.000000000000000E+000  0.000000000000000E+000        
  0.813200000000000       0.342150000000000        1.00000000000000             
  0.000000000000000E+000  0.000000000000000E+000  0.000000000000000E+000        
  0.000000000000000E+000  0.000000000000000E+000  0.000000000000000E+000        
  0.289000000000000       0.463864000000000       0.000000000000000E+000        
   1.00000000000000       0.000000000000000E+000  0.000000000000000E+000        
  0.000000000000000E+000  0.000000000000000E+000  0.000000000000000E+000        
  0.100700000000000       0.250028000000000       0.000000000000000E+000        
  0.000000000000000E+000   1.00000000000000       0.000000000000000E+000        
  0.000000000000000E+000  0.000000000000000E+000  0.000000000000000E+000        
   8.18200000000000       0.000000000000000E+000  0.000000000000000E+000        
  0.000000000000000E+000  0.000000000000000E+000   1.00000000000000             
  0.000000000000000E+000  0.000000000000000E+000  0.000000000000000E+000        
   24.1860000000000       0.000000000000000E+000  0.000000000000000E+000        
  0.000000000000000E+000  0.000000000000000E+000  0.000000000000000E+000        
   1.00000000000000       0.000000000000000E+000  0.000000000000000E+000        
   71.4940000000000       0.000000000000000E+000  0.000000000000000E+000        
  0.000000000000000E+000  0.000000000000000E+000  0.000000000000000E+000        
  0.000000000000000E+000   1.00000000000000       0.000000000000000E+000        
  3.218000000000000E-002  0.000000000000000E+000  0.000000000000000E+000        
  0.000000000000000E+000  0.000000000000000E+000  0.000000000000000E+000        
  0.000000000000000E+000  0.000000000000000E+000   1.00000000000000             
    6    6                                                                      
   1.84800000000000        1.00000000000000       0.000000000000000E+000        
  0.000000000000000E+000  0.000000000000000E+000  0.000000000000000E+000        
  0.000000000000000E+000                                                        
  0.649000000000000       0.000000000000000E+000   1.00000000000000             
  0.000000000000000E+000  0.000000000000000E+000  0.000000000000000E+000        
  0.000000000000000E+000                                                        
  0.228000000000000       0.000000000000000E+000  0.000000000000000E+000        
   1.00000000000000       0.000000000000000E+000  0.000000000000000E+000        
  0.000000000000000E+000                                                        
   8.65600000000000       0.000000000000000E+000  0.000000000000000E+000        
  0.000000000000000E+000   1.00000000000000       0.000000000000000E+000        
  0.000000000000000E+000                                                        
   33.2130000000000       0.000000000000000E+000  0.000000000000000E+000        
  0.000000000000000E+000  0.000000000000000E+000   1.00000000000000             
  0.000000000000000E+000                                                        
  7.660000000000000E-002  0.000000000000000E+000  0.000000000000000E+000        
  0.000000000000000E+000  0.000000000000000E+000  0.000000000000000E+000        
   1.00000000000000                                                             
    4    4                                                                      
   1.41900000000000        1.00000000000000       0.000000000000000E+000        
  0.000000000000000E+000  0.000000000000000E+000                                
  0.485000000000000       0.000000000000000E+000   1.00000000000000             
  0.000000000000000E+000  0.000000000000000E+000                                
   24.6940000000000       0.000000000000000E+000  0.000000000000000E+000        
   1.00000000000000       0.000000000000000E+000                                
  0.187000000000000       0.000000000000000E+000  0.000000000000000E+000        
  0.000000000000000E+000   1.00000000000000                                     
    2    2                                                                      
   1.01100000000000        1.00000000000000       0.000000000000000E+000        
  0.424000000000000       0.000000000000000E+000   1.00000000000000             
          8.00000000    1    5    1    1    1    1    1                         
O #2   0.000000000000000   0.000000000000000  -0.852857450257346                
   16    9                                                                      
   61420.0000000000       9.000000000000001E-005 -2.000000000000000E-005        
  0.000000000000000E+000  0.000000000000000E+000  0.000000000000000E+000        
  0.000000000000000E+000  0.000000000000000E+000  0.000000000000000E+000        
  0.000000000000000E+000                                                        
   9199.00000000000       6.980000000000001E-004 -1.590000000000000E-004        
  0.000000000000000E+000  0.000000000000000E+000  0.000000000000000E+000        
  0.000000000000000E+000  0.000000000000000E+000  0.000000000000000E+000        
  0.000000000000000E+000                                                        
   2091.00000000000       3.664000000000000E-003 -8.290000000000000E-004        
  0.000000000000000E+000  0.000000000000000E+000  0.000000000000000E+000        
  0.000000000000000E+000  0.000000000000000E+000  0.000000000000000E+000        
  0.000000000000000E+000                                                        
   590.900000000000       1.521800000000000E-002 -3.508000000000000E-003        
  0.000000000000000E+000  0.000000000000000E+000  0.000000000000000E+000        
  0.000000000000000E+000  0.000000000000000E+000  0.000000000000000E+000        
  0.000000000000000E+000                                                        
   192.300000000000       5.242300000000000E-002 -1.215600000000000E-002        
  0.000000000000000E+000  0.000000000000000E+000  0.000000000000000E+000        
  0.000000000000000E+000  0.000000000000000E+000  0.000000000000000E+000        
  0.000000000000000E+000                                                        
   69.3200000000000       0.145921000000000      -3.626100000000000E-002        
  0.000000000000000E+000  0.000000000000000E+000  0.000000000000000E+000        
  0.000000000000000E+000  0.000000000000000E+000  0.000000000000000E+000        
  0.000000000000000E+000                                                        
   26.9700000000000       0.305258000000000      -8.299200000000000E-002        
  0.000000000000000E+000  0.000000000000000E+000  0.000000000000000E+000        
  0.000000000000000E+000  0.000000000000000E+000  0.000000000000000E+000        
  0.000000000000000E+000                                                        
   11.1000000000000       0.398508000000000      -0.152090000000000             
  0.000000000000000E+000  0.000000000000000E+000  0.000000000000000E+000        
  0.000000000000000E+000  0.000000000000000E+000  0.000000000000000E+000        
  0.000000000000000E+000                                                        
   4.68200000000000       0.216980000000000      -0.115331000000000             
  0.000000000000000E+000  0.000000000000000E+000  0.000000000000000E+000        
  0.000000000000000E+000  0.000000000000000E+000  0.000000000000000E+000        
  0.000000000000000E+000                                                        
   1.42800000000000       1.759400000000000E-002  0.288979000000000             
   1.00000000000000       0.000000000000000E+000  0.000000000000000E+000        
  0.000000000000000E+000  0.000000000000000E+000  0.000000000000000E+000        
  0.000000000000000E+000                                                        
  0.554700000000000      -2.502000000000000E-003  0.586128000000000             
  0.000000000000000E+000   1.00000000000000       0.000000000000000E+000        
  0.000000000000000E+000  0.000000000000000E+000  0.000000000000000E+000        
  0.000000000000000E+000                                                        
  0.206700000000000       9.540000000000000E-004  0.277624000000000             
  0.000000000000000E+000  0.000000000000000E+000   1.00000000000000             
  0.000000000000000E+000  0.000000000000000E+000  0.000000000000000E+000        
  0.000000000000000E+000                                                        
   12.9740000000000       0.000000000000000E+000  0.000000000000000E+000        
  0.000000000000000E+000  0.000000000000000E+000  0.000000000000000E+000        
   1.00000000000000       0.000000000000000E+000  0.000000000000000E+000        
  0.000000000000000E+000                                                        
   34.9000000000000       0.000000000000000E+000  0.000000000000000E+000        
  0.000000000000000E+000  0.000000000000000E+000  0.000000000000000E+000        
  0.000000000000000E+000   1.00000000000000       0.000000000000000E+000        
  0.000000000000000E+000                                                        
   93.8810000000000       0.000000000000000E+000  0.000000000000000E+000        
  0.000000000000000E+000  0.000000000000000E+000  0.000000000000000E+000        
  0.000000000000000E+000  0.000000000000000E+000   1.00000000000000             
  0.000000000000000E+000                                                        
  6.959000000000000E-002  0.000000000000000E+000  0.000000000000000E+000        
  0.000000000000000E+000  0.000000000000000E+000  0.000000000000000E+000        
  0.000000000000000E+000  0.000000000000000E+000  0.000000000000000E+000        
   1.00000000000000                                                             
   10    8                                                                      
   63.4200000000000       6.044000000000000E-003  0.000000000000000E+000        
  0.000000000000000E+000  0.000000000000000E+000  0.000000000000000E+000        
  0.000000000000000E+000  0.000000000000000E+000  0.000000000000000E+000        
   14.6600000000000       4.179900000000000E-002  0.000000000000000E+000        
  0.000000000000000E+000  0.000000000000000E+000  0.000000000000000E+000        
  0.000000000000000E+000  0.000000000000000E+000  0.000000000000000E+000        
   4.45900000000000       0.161143000000000       0.000000000000000E+000        
  0.000000000000000E+000  0.000000000000000E+000  0.000000000000000E+000        
  0.000000000000000E+000  0.000000000000000E+000  0.000000000000000E+000        
   1.53100000000000       0.356731000000000        1.00000000000000             
  0.000000000000000E+000  0.000000000000000E+000  0.000000000000000E+000        
  0.000000000000000E+000  0.000000000000000E+000  0.000000000000000E+000        
  0.530200000000000       0.448309000000000       0.000000000000000E+000        
   1.00000000000000       0.000000000000000E+000  0.000000000000000E+000        
  0.000000000000000E+000  0.000000000000000E+000  0.000000000000000E+000        
  0.175000000000000       0.244940000000000       0.000000000000000E+000        
  0.000000000000000E+000   1.00000000000000       0.000000000000000E+000        
  0.000000000000000E+000  0.000000000000000E+000  0.000000000000000E+000        
   14.4750000000000       0.000000000000000E+000  0.000000000000000E+000        
  0.000000000000000E+000  0.000000000000000E+000   1.00000000000000             
  0.000000000000000E+000  0.000000000000000E+000  0.000000000000000E+000        
   42.7300000000000       0.000000000000000E+000  0.000000000000000E+000        
  0.000000000000000E+000  0.000000000000000E+000  0.000000000000000E+000        
   1.00000000000000       0.000000000000000E+000  0.000000000000000E+000        
   126.140000000000       0.000000000000000E+000  0.000000000000000E+000        
  0.000000000000000E+000  0.000000000000000E+000  0.000000000000000E+000        
  0.000000000000000E+000   1.00000000000000       0.000000000000000E+000        
  5.348000000000000E-002  0.000000000000000E+000  0.000000000000000E+000        
  0.000000000000000E+000  0.000000000000000E+000  0.000000000000000E+000        
  0.000000000000000E+000  0.000000000000000E+000   1.00000000000000             
    6    6                                                                      
   3.77500000000000        1.00000000000000       0.000000000000000E+000        
  0.000000000000000E+000  0.000000000000000E+000  0.000000000000000E+000        
  0.000000000000000E+000                                                        
   1.30000000000000       0.000000000000000E+000   1.00000000000000             
  0.000000000000000E+000  0.000000000000000E+000  0.000000000000000E+000        
  0.000000000000000E+000                                                        
  0.444000000000000       0.000000000000000E+000  0.000000000000000E+000        
   1.00000000000000       0.000000000000000E+000  0.000000000000000E+000        
  0.000000000000000E+000                                                        
   14.9270000000000       0.000000000000000E+000  0.000000000000000E+000        
  0.000000000000000E+000   1.00000000000000       0.000000000000000E+000        
  0.000000000000000E+000                                                        
   57.5440000000000       0.000000000000000E+000  0.000000000000000E+000        
  0.000000000000000E+000  0.000000000000000E+000   1.00000000000000             
  0.000000000000000E+000                                                        
  0.154000000000000       0.000000000000000E+000  0.000000000000000E+000        
  0.000000000000000E+000  0.000000000000000E+000  0.000000000000000E+000        
   1.00000000000000                                                             
    4    4                                                                      
   2.66600000000000        1.00000000000000       0.000000000000000E+000        
  0.000000000000000E+000  0.000000000000000E+000                                
  0.859000000000000       0.000000000000000E+000   1.00000000000000             
  0.000000000000000E+000  0.000000000000000E+000                                
   26.4830000000000       0.000000000000000E+000  0.000000000000000E+000        
   1.00000000000000       0.000000000000000E+000                                
  0.324000000000000       0.000000000000000E+000  0.000000000000000E+000        
  0.000000000000000E+000   1.00000000000000                                     
    2    2                                                                      
   1.84600000000000        1.00000000000000       0.000000000000000E+000        
  0.714000000000000       0.000000000000000E+000   1.00000000000000             
FINISH                                                                          
 
********************************************************************************
 ONE- AND TWO-ELECTRON INTEGRALS OVER SYMMETRY-ADAPTED AOS ARE CALCULATED.

  SPHERICAL HARMONICS ARE USED.
  
  INTEGRALS LESS THAN  0.10E-13 ARE NEGLECTED.

  NUCLEAR REPULSION ENERGY :   22.5131848438 A.U.
  @MOLECU-I, ONE ELECTRON INTEGRALS (CPU/WALL):        0.05/       0.07 SECONDS.
  @TWOEL-I,    4596335 INTEGRALS OF SYMMETRY TYPE  I I I I
  @TWOEL-I,   19726989 INTEGRALS OF SYMMETRY TYPE  I J I J
  @TWOEL-I,   10395776 INTEGRALS OF SYMMETRY TYPE  I I J J
  @TWOEL-I,   14595741 INTEGRALS OF SYMMETRY TYPE  I J K L
  @TWOEL-I, TOTAL NUMBER OF 2-E INTEGRALS   49314841.
  @MOLECU-I, TWO ELECTRON INTEGRALS (CPU/WALL):      234.80/      31.93 SECONDS.
 @CHECKOUT-I, Total execution time (CPU/WALL):      234.90/      32.06 seconds.

Running with 14 threads/proc

--executable xvmol finished with status     0 in       32.33 seconds (walltime).
 --invoking executable--
/nfs/workspaces/public/cfour_mpi/bin/xvmol2ja
 @GETMEM-I,  Allocated    3814 MB of main memory.
 @CHECKOUT-I, Total execution time (CPU/WALL):        0.61/       0.16 seconds.
--executable xvmol2ja finished with status     0 in        0.18 seconds (walltime).
 --invoking executable--
/nfs/workspaces/public/cfour_mpi/bin/xvprop
 @GETMEM-I,  Allocated    3814 MB of main memory.
   Property integrals will be calculated.
    --------------------------------------------------------------
                                   Property evaluated at 
    Property type                X             Y             Z
    --------------------------------------------------------------
    Dipole moment               ----          ----          ----  
    Quadrupole moment           ----          ----          ----  
    Octopole moment             ----          ----          ----  
    Relativisitic corr.         ----          ----          ----  
    Second moment            0.0000000     0.0000000     0.0000000
    Electron density         0.0000000     0.0000000     1.2792265
    Electron density         0.0000000     0.0000000    -0.8528575
    Field gradient           0.0000000     0.0000000     1.2792265
    Field gradient           0.0000000     0.0000000    -0.8528575
    Potential                0.0000000     0.0000000     1.2792265
    Potential                0.0000000     0.0000000    -0.8528575
    --------------------------------------------------------------
 @CHECKOUT-I, Total execution time (CPU/WALL):        1.43/       1.47 seconds.
--executable xvprop finished with status     0 in        1.50 seconds (walltime).
 --invoking executable--
/nfs/workspaces/public/cfour_mpi/bin/xvscf
  There are  218 functions in the AO basis.

  There are 4 irreducible representations.

       Irrep        # of functions
         1                 86
         2                 52
         3                 52
         4                 28


  Parameters for SCF calculation: 
        SCF reference function:  RHF  
  Maximum number of iterations:  150
     Full symmetry point group: CXv 
     Computational point group: C2v 
        Initial density matrix: MOREAD                 
     SCF convergence tolerance: 10**(-10)
  DIIS convergence acceleration:  ON
          Latest start for DIIS:   8
                     DIIS order:   6

  Memory information:    2523578 words required.
  Fock matrices are constructed from AO integral file.
 @GETMEM-I,  Allocated      19 MB of main memory.
  Initialization and symmetry analysis required      0.002 seconds.

  Adding electric field perturbation to one-electron Hamiltonian.
  Field direction     : Z
  Field strength      :  0.0002000 a.u.

  @INITGES-I, Occupancies from core Hamiltonian:

          Alpha population by irrep:   5    1    1    0
           Beta population by irrep:   5    1    1    0


 total no. of electrons in initial guess :  0.000000000000000E+000
  --------------------------------------------------------------------
  Iteration         Total Energy            Largest Density Difference
  --------------------------------------------------------------------
       0            22.513014343909433              0.0000000000D+00
   current occupation vector 
     5  1  1  0
     5  1  1  0
       1           -91.792765186546248              0.1871611870D+02
   current occupation vector 
     5  1  1  0
     5  1  1  0
       2           -96.468478822339875              0.2333009676D+02
   current occupation vector 
     5  1  1  0
     5  1  1  0
       3          -103.358546977933926              0.2331907484D+02
   current occupation vector 
     5  1  1  0
     5  1  1  0
       4          -100.407950392275538              0.7592163135D+01
   current occupation vector 
     5  1  1  0
     5  1  1  0
       5          -103.459288024946574              0.7399226895D+01
   current occupation vector 
     5  1  1  0
     5  1  1  0
       6          -100.508823061671123              0.5809352719D+01
   current occupation vector 
     5  1  1  0
     5  1  1  0
       7          -103.257789564115697              0.5595111717D+01
   current occupation vector 
     5  1  1  0
     5  1  1  0
       8          -100.261831373134044              0.5580132272D+01
   current occupation vector 
     5  1  1  0
     5  1  1  0
       9          -110.831017603331006              0.4185758290D+01
   current occupation vector 
     5  1  1  0
     5  1  1  0
      10          -112.305176059898443              0.9117764590D+00
   current occupation vector 
     5  1  1  0
     5  1  1  0
      11          -112.774914412254262              0.4955321682D+00
   current occupation vector 
     5  1  1  0
     5  1  1  0
      12          -112.788802337056822              0.1041700418D+00
   current occupation vector 
     5  1  1  0
     5  1  1  0
      13          -112.789218978973324              0.2305892913D-01
   current occupation vector 
     5  1  1  0
     5  1  1  0
      14          -112.789299067211218              0.1356890390D-01
   current occupation vector 
     5  1  1  0
     5  1  1  0
      15          -112.789302481465356              0.3685669392D-02
   current occupation vector 
     5  1  1  0
     5  1  1  0
      16          -112.789302519471320              0.3278776852D-03
   current occupation vector 
     5  1  1  0
     5  1  1  0
      17          -112.789302520424698              0.3634221746D-04
   current occupation vector 
     5  1  1  0
     5  1  1  0
      18          -112.789302520452523              0.6243714243D-05
   current occupation vector 
     5  1  1  0
     5  1  1  0
      19          -112.789302520453148              0.1190038332D-05
   current occupation vector 
     5  1  1  0
     5  1  1  0
      20          -112.789302520452267              0.2075270997D-06
   current occupation vector 
     5  1  1  0
     5  1  1  0
      21          -112.789302520454029              0.3362377532D-07
   current occupation vector 
     5  1  1  0
     5  1  1  0
      22          -112.789302520453461              0.8469321022D-08
   current occupation vector 
     5  1  1  0
     5  1  1  0
      23          -112.789302520453035              0.4735956072D-08
   current occupation vector 
     5  1  1  0
     5  1  1  0
      24          -112.789302520453347              0.1596953680D-09
   current occupation vector 
     5  1  1  0
     5  1  1  0
      25          -112.789302520452011              0.2311457692D-09
   current occupation vector 
     5  1  1  0
     5  1  1  0
      26          -112.789302520452722              0.2270641453D-09
   current occupation vector 
     5  1  1  0
     5  1  1  0

  SCF has converged.

 Density matrix saved to file den.dat
 total electron number:   14.0000000000002     
     E(SCF)=      -112.789302520453802              0.7003439495D-10

  Eigenvector printing suppressed.

 @PUTMOS-I, Writing converged MOs to NEWMOS. 
 @PUTMOS-I, Symmetry   1 Full Blocks 21 Partial Blocksize   2
 @PUTMOS-I, Symmetry   2 Full Blocks 13 Partial Blocksize   0
 @PUTMOS-I, Symmetry   3 Full Blocks 13 Partial Blocksize   0
 @PUTMOS-I, Symmetry   4 Full Blocks  7 Partial Blocksize   0
 @PUTFOCK-I, Writing converged Fock matrix to NEWFOCK. 
 @PUTFOCK-I, Symmetry   1 Full Blocks 21 Partial Blocksize   2
 @PUTFOCK-I, Symmetry   2 Full Blocks 13 Partial Blocksize   0
 @PUTFOCK-I, Symmetry   3 Full Blocks 13 Partial Blocksize   0
 @PUTFOCK-I, Symmetry   4 Full Blocks  7 Partial Blocksize   0


 
  ORBITAL EIGENVALUES (ALPHA)  (1H = 27.2113834 eV)

       MO #        E(hartree)               E(eV)           FULLSYM    COMPSYM
       ----   --------------------   --------------------   -------   ---------
    1     1         -20.6651439365        -562.3271546724     SG+        A1 (1)
    2     2         -11.3602667184        -309.1285732001     SG+        A1 (1)
    3     3          -1.5216992683         -41.4075422080     SG+        A1 (1)
    4     4          -0.8046475485         -21.8955729438     SG+        A1 (1)
    5    87          -0.6403340038         -17.4243740825      PI        B1 (2)
    6   139          -0.6403340038         -17.4243740825      PI        B2 (3)
    7     5          -0.5547157235         -15.0945822295     SG+        A1 (1)
  +++++++++++++++++++++++++++++++++++++++++++++++++++++++++++++++++++++++++++++
    8     6           0.0596550003           1.6232950854     SG+        A1 (1)
    9   140           0.0632340221           1.7206852192      PI        B2 (3)
   10    88           0.0632340221           1.7206852192      PI        B1 (2)
   11     7           0.0756969574           2.0598189306     SG+        A1 (1)
   12   141           0.1411168333           3.8399842556      PI        B2 (3)
   13    89           0.1411168333           3.8399842556      PI        B1 (2)
   14     8           0.1559677697           4.2440987801     SG+        A1 (1)
   15   142           0.1667402772           4.5372336123      PI        B2 (3)
   16    90           0.1667402772           4.5372336123      PI        B1 (2)
   17     9           0.2279318713           6.2023415378     SG+        A1 (1)
   18   191           0.2281640759           6.2086601472      DE        A2 (4)
   19    10           0.2281640759           6.2086601472      DE        A1 (1)
   20    11           0.3015577716           8.2058041391     SG+        A1 (1)
   21   143           0.3212018145           8.7403457237      PI        B2 (3)
   22    91           0.3212018145           8.7403457237      PI        B1 (2)
   23    12           0.3922443637          10.6735117665     SG+        A1 (1)
   24   144           0.3958179128          10.7707529817      PI        B2 (3)
   25    92           0.3958179128          10.7707529817      PI        B1 (2)
   26    13           0.5081163708          13.8265493765     SG+        A1 (1)
   27   192           0.5344866892          14.5441222215      DE        A2 (4)
   28    14           0.5344866892          14.5441222215      DE        A1 (1)
   29   145           0.6228388666          16.9483071945      PI        B2 (3)
   30    93           0.6228388666          16.9483071945      PI        B1 (2)
   31    15           0.6450682618          17.5531997924     SG+        A1 (1)
   32   146           0.7490124408          20.3816646973      PH        B2 (3)
   33    94           0.7490124408          20.3816646973      PH        B1 (2)
   34   193           0.7688581362          20.9216935247      DE        A2 (4)
   35    16           0.7688581362          20.9216935248      DE        A1 (1)
   36    17           0.7799455884          21.2233984367     SG+        A1 (1)
   37   147           0.8238144702          22.4171313992      PI        B2 (3)
   38    95           0.8238144702          22.4171313992      PI        B1 (2)
   39    18           0.8724482428          23.7405236306     SG+        A1 (1)
   40   148           0.8810792819          23.9753861463      PI        B2 (3)
   41    96           0.8810792819          23.9753861463      PI        B1 (2)
   42   194           0.8913261252          24.2542169283      DE        A2 (4)
   43    19           0.8913261252          24.2542169283      DE        A1 (1)
   44    20           0.9108605493          24.7857756305     SG+        A1 (1)
   45   149           1.0771866934          29.3117401078      PI        B2 (3)
   46    97           1.0771866934          29.3117401078      PI        B1 (2)
   47    21           1.1959546526          32.5435805806     SG+        A1 (1)
   48   150           1.4474733397          39.3877520076      PH        B2 (3)
   49    98           1.4474733397          39.3877520076      PH        B1 (2)
   50    22           1.4743927655          40.1202668229     SG+        A1 (1)
   51   195           1.5174764359          41.2926330978      DE        A2 (4)
   52    23           1.5174764359          41.2926330978      DE        A1 (1)
   53   151           1.5535650786          42.2746549900      PI        B2 (3)
   54    99           1.5535650786          42.2746549900      PI        B1 (2)
   55    24           1.6670709709          45.3633073440     SG+        A1 (1)
   56   196           1.7690235632          48.1375784222      DE        A2 (4)
   57    25           1.7690235632          48.1375784222      DE        A1 (1)
   58    26           1.7706781525          48.1826020866     SG+        A1 (1)
   59   152           1.8056665233          49.1346840582      PI        B2 (3)
   60   100           1.8056665233          49.1346840582      PI        B1 (2)
   61   153           1.9686638702          53.5700673582      PI        B2 (3)
   62   101           1.9686638702          53.5700673582      PI        B1 (2)
   63   197           2.1058497394          57.3030846421      PI        A2 (4)
   64    27           2.1058497394          57.3030846421      PI        A1 (1)
   65    28           2.1356057310          58.1127863366     SG+        A1 (1)
   66   198           2.1961920526          59.7614239635      DE        A2 (4)
   67    29           2.1961920526          59.7614239635      DE        A1 (1)
   68   154           2.2521346591          61.2836996769      PH        B2 (3)
   69   102           2.2521346591          61.2836996769      PH        B1 (2)
   70    30           2.3160518916          63.0229759965     SG+        A1 (1)
   71   155           2.3253553393          63.2761356797      PI        B2 (3)
   72   103           2.3253553393          63.2761356797      PI        B1 (2)
   73   104           2.3633935485          64.3112079744      PH        B1 (2)
   74   156           2.3633935485          64.3112079744      PH        B2 (3)
   75   199           2.3647678383          64.3486043010      DE        A2 (4)
   76    31           2.3647678383          64.3486043010      DE        A1 (1)
   77    32           2.4869842653          67.6742823533     SG+        A1 (1)
   78   105           2.5980887114          70.6975880343      PI        B1 (2)
   79   157           2.5980887114          70.6975880343      PI        B2 (3)
   80   158           2.8324905770          77.0759870671      PI        B2 (3)
   81   106           2.8324905770          77.0759870671      PI        B1 (2)
   82    33           2.9426363939          80.0732071219     SG+        A1 (1)
   83   200           3.0094897076          81.8923782731      DE        A2 (4)
   84    34           3.0094897076          81.8923782731      DE        A1 (1)
   85    35           3.4751694581          94.5641685040     SG+        A1 (1)
   86   201           3.7236761284         101.3263787877      PI        A2 (4)
   87    36           3.7236761284         101.3263787877      PI        A1 (1)
   88   159           3.7509155905         102.0676022352      PI        B2 (3)
   89   107           3.7509155905         102.0676022352      PI        B1 (2)
   90    37           3.9472254141         107.4094641098     SG+        A1 (1)
   91   108           4.0826742877         111.0952153394      PH        B1 (2)
   92   160           4.0826742877         111.0952153394      PH        B2 (3)
   93   202           4.1764370647         113.6466302133      DE        A2 (4)
   94    38           4.1764370647         113.6466302134      DE        A1 (1)
   95   109           4.2104727417         114.5727880693      PI        B1 (2)
   96   161           4.2104727417         114.5727880693      PI        B2 (3)
   97    39           4.2722606194         116.2541216983     SG+        A1 (1)
   98   110           4.2841367666         116.5772880947      PH        B1 (2)
   99   162           4.2841367666         116.5772880947      PH        B2 (3)
  100   203           4.3818989469         119.2375322654      DE        A2 (4)
  101    40           4.3818989469         119.2375322654      DE        A1 (1)
  102    41           4.5354407568         123.4156173202     SG+        A1 (1)
  103   111           4.7638815296         129.6318067752      PI        B1 (2)
  104   163           4.7638815296         129.6318067752      PI        B2 (3)
  105    42           5.0138778490         136.4345524702     SG+        A1 (1)
  106   164           5.1306814014         139.6129387181      PI        B2 (3)
  107   112           5.1306814014         139.6129387181      PI        B1 (2)
  108    43           5.1524509448         140.2053181092      DE        A1 (1)
  109   204           5.1524509448         140.2053181092      DE        A2 (4)
  110   113           5.8166533232         158.2791836817      PI        B1 (2)
  111   165           5.8166533232         158.2791836817      PI        B2 (3)
  112    44           5.8539075028         159.2929214473     SG+        A1 (1)
  113    45           5.9012137590         160.5801901225      PI        A1 (1)
  114   205           5.9012137590         160.5801901225      PI        A2 (4)
  115   114           6.1366740642         166.9873907626      PH        B1 (2)
  116   166           6.1366740642         166.9873907626      PH        B2 (3)
  117    46           6.2328586020         169.6047050976     SG+        A1 (1)
  118   206           6.3060569390         171.5965331092      DE        A2 (4)
  119    47           6.3060569390         171.5965331092      DE        A1 (1)
  120   167           6.3287020661         172.2127383459      PI        B2 (3)
  121   115           6.3287020661         172.2127383459      PI        B1 (2)
  122   116           6.4437152414         175.3424059541      PH        B1 (2)
  123   168           6.4437152414         175.3424059541      PH        B2 (3)
  124   207           6.5908498621         179.3461425291      DE        A2 (4)
  125    48           6.5908498621         179.3461425292      DE        A1 (1)
  126    49           7.0561721742         192.0082063680     SG+        A1 (1)
  127    50           7.3514453264         200.0429973213      DE        A1 (1)
  128   208           7.3514453264         200.0429973213      DE        A2 (4)
  129   169           7.4942509587         203.9289361330      PI        B2 (3)
  130   117           7.4942509587         203.9289361330      PI        B1 (2)
  131    51           7.7958630521         212.1362184438     SG+        A1 (1)
  132    52           8.2570241820         224.6850507585     SG+        A1 (1)
  133   118           8.4905962719         231.0408704484      PI        B1 (2)
  134   170           8.4905962719         231.0408704484      PI        B2 (3)
  135   171          10.1227710399         275.4546038364      PI        B2 (3)
  136   119          10.1227710399         275.4546038365      PI        B1 (2)
  137    53          10.5212711877         286.2983441441     SG+        A1 (1)
  138    54          10.6018996624         288.4923564819      PI        A1 (1)
  139   209          10.6018996624         288.4923564819      PI        A2 (4)
  140   120          10.8826271064         296.1313385918      PH        B1 (2)
  141   172          10.8826271064         296.1313385918      PH        B2 (3)
  142   210          11.1356335069         303.0159927572      DE        A2 (4)
  143    55          11.1356335069         303.0159927572      DE        A1 (1)
  144    56          11.1576863840         303.6160820515     SG+        A1 (1)
  145   121          11.3739413787         309.5006796257      PI        B1 (2)
  146   173          11.3739413787         309.5006796257      PI        B2 (3)
  147    57          11.6241810544         316.3100473815     SG+        A1 (1)
  148   122          11.8550060321         322.5911143478      PH        B1 (2)
  149   174          11.8550060321         322.5911143478      PH        B2 (3)
  150   211          12.2932097759         334.5152444279      DE        A2 (4)
  151    58          12.2932097759         334.5152444281      DE        A1 (1)
  152   123          12.6476149130         344.1590984945      PI        B1 (2)
  153   175          12.6476149130         344.1590984945      PI        B2 (3)
  154   212          12.8788247967         350.4506392853      DE        A2 (4)
  155    59          12.8788247967         350.4506392853      DE        A1 (1)
  156    60          13.3187818392         362.4224790476     SG+        A1 (1)
  157   176          14.1879766325         386.0744718169      PI        B2 (3)
  158   124          14.1879766325         386.0744718170      PI        B1 (2)
  159    61          15.6009741840         424.5240899348     SG+        A1 (1)
  160    62          18.0449061784         491.0268604363     SG+        A1 (1)
  161   177          19.4161473298         528.3402291418      PI        B2 (3)
  162   125          19.4161473298         528.3402291419      PI        B1 (2)
  163    63          20.6808901575         562.7556311285     SG+        A1 (1)
  164   213          26.5392983102         722.1710214857      DE        A2 (4)
  165    64          26.5392983102         722.1710214858      DE        A1 (1)
  166   178          27.0292850948         735.5042397419      PI        B2 (3)
  167   126          27.0292850948         735.5042397419      PI        B1 (2)
  168    65          28.2468980030         768.6371714210     SG+        A1 (1)
  169   179          33.7977460682         919.6834263175      PI        B2 (3)
  170   127          33.7977460682         919.6834263181      PI        B1 (2)
  171    66          35.0154969551         952.8201125863     SG+        A1 (1)
  172    67          36.8475078950        1002.6716646646     SG+        A1 (1)
  173   214          47.1237051184        1282.3012072052      DE        A2 (4)
  174    68          47.1237051184        1282.3012072052      DE        A1 (1)
  175   128          47.7279450596        1298.7434119120      PI        B1 (2)
  176   180          47.7279450596        1298.7434119120      PI        B2 (3)
  177    69          48.5923084996        1322.2639368739     SG+        A1 (1)
  178    70          64.2382048535        1748.0104211959     SG+        A1 (1)
  179   181          66.8593514813        1819.3354470318      PI        B2 (3)
  180   129          66.8593514813        1819.3354470318      PI        B1 (2)
  181    71          67.8350973871        1845.8868429762     SG+        A1 (1)
  182   182          98.6771182025        2685.1408962142      PH        B2 (3)
  183   130          98.6771182025        2685.1408962142      PH        B1 (2)
  184   215          98.7000525416        2685.7649713088      DE        A2 (4)
  185    72          98.7000525416        2685.7649713088      DE        A1 (1)
  186   131          98.7692877710        2687.6489576819      PI        B1 (2)
  187   183          98.7692877710        2687.6489576819      PI        B2 (3)
  188    73          98.7805791970        2687.9562130025     SG+        A1 (1)
  189   132         103.2844046447        2810.5115340284      PH        B1 (2)
  190   184         103.2844046447        2810.5115340284      PH        B2 (3)
  191   216         103.3353991177        2811.8991641850      DE        A2 (4)
  192    74         103.3353991179        2811.8991641893      DE        A1 (1)
  193   133         103.3630578240        2812.6517958457      PI        B1 (2)
  194   185         103.3630578240        2812.6517958458      PI        B2 (3)
  195    75         103.4261947595        2814.3698392041     SG+        A1 (1)
  196    76         115.1914669547        3134.5191717122      DE        A1 (1)
  197   217         115.1914669547        3134.5191717122      DE        A2 (4)
  198   186         115.4305870224        3141.0259595533      PI        B2 (3)
  199   134         115.4305870224        3141.0259595533      PI        B1 (2)
  200    77         116.0484812853        3157.8397172426     SG+        A1 (1)
  201   187         117.0462078627        3184.9892376690      PI        B2 (3)
  202   135         117.0462078628        3184.9892376697      PI        B1 (2)
  203    78         118.0849861918        3213.2558330499     SG+        A1 (1)
  204    79         122.9349018640        3345.2287478635     SG+        A1 (1)
  205   218         198.5802879437        5403.6443509180      DE        A2 (4)
  206    80         198.5802879437        5403.6443509181      DE        A1 (1)
  207   136         198.9078026184        5412.5564783009      PI        B1 (2)
  208   188         198.9078026184        5412.5564783014      PI        B2 (3)
  209    81         199.3410460892        5424.3456324894     SG+        A1 (1)
  210    82         216.7156425294        5897.1324376448     SG+        A1 (1)
  211   189         225.2710368030        6129.9365513616      PI        B2 (3)
  212   137         225.2710368030        6129.9365513617      PI        B1 (2)
  213    83         226.0697148933        6151.6696870895     SG+        A1 (1)
  214   190         395.5042243060       10762.2170839088      PI        B2 (3)
  215   138         395.5042243060       10762.2170839095      PI        B1 (2)
  216    84         396.3605037020       10785.5176308517     SG+        A1 (1)
  217    85         509.4653252828       13863.2562952765     SG+        A1 (1)
  218    86         895.5470983194       24369.0754451271     SG+        A1 (1)


  VSCF finished.

 @CHECKOUT-I, Total execution time (CPU/WALL):       49.99/      12.64 seconds.
--executable xvscf finished with status     0 in       12.67 seconds (walltime).
 --invoking executable--
/nfs/workspaces/public/cfour_mpi/bin/xvtran
 @GETMEM-I,  Allocated    3814 MB of main memory.
  Full RHF integral transformation
  Transformation of IIII integrals :
  1 pass through the AO integral file was required.
     4596335 AO integrals were read.
     8839881 MO integrals were written to HF2.
  Transformation of IIJJ integrals :
  1 pass through the AO integral file was required.
    10395776 AO integrals were read.
    14649696 MO integrals were written to HF2.
  Transformation of IJIJ integrals :
  1 pass through the AO integral file was required.
    19726989 AO integrals were read.
    27620719 MO integrals were written to HF2.
  Transformation of IJKL integrals :
  1 pass through the AO integral file was required.
    14595741 AO integrals were read.
    18648272 MO integrals were written to HF2.
  Summary of active molecular orbitals: 
------------------------------------------------------------------------
 
  Index      Eigenvalue    Symmetry    Index      Eigenvalue    Symmetry
------------------------------------------------------------------------
     1       -20.6651439        1       110         4.2104727        2
     2       -11.3602667        1       111         4.2841368        2
     3        -1.5216993        1       112         4.7638815        2
     4        -0.8046475        1       113         5.1306814        2
     5        -0.5547157        1       114         5.8166533        2
     6        -0.6403340        2       115         6.1366741        2
     7        -0.6403340        3       116         6.3287021        2
     8         0.0596550        1       117         6.4437152        2
     9         0.0756970        1       118         7.4942510        2
    10         0.1559678        1       119         8.4905963        2
    11         0.2279319        1       120        10.1227710        2
    12         0.2281641        1       121        10.8826271        2
    13         0.3015578        1       122        11.3739414        2
    14         0.3922444        1       123        11.8550060        2
    15         0.5081164        1       124        12.6476149        2
    16         0.5344867        1       125        14.1879766        2
    17         0.6450683        1       126        19.4161473        2
    18         0.7688581        1       127        27.0292851        2
    19         0.7799456        1       128        33.7977461        2
    20         0.8724482        1       129        47.7279451        2
    21         0.8913261        1       130        66.8593515        2
    22         0.9108605        1       131        98.6771182        2
    23         1.1959547        1       132        98.7692878        2
    24         1.4743928        1       133       103.2844046        2
    25         1.5174764        1       134       103.3630578        2
    26         1.6670710        1       135       115.4305870        2
    27         1.7690236        1       136       117.0462079        2
    28         1.7706782        1       137       198.9078026        2
    29         2.1058497        1       138       225.2710368        2
    30         2.1356057        1       139       395.5042243        2
    31         2.1961921        1       140         0.0632340        3
    32         2.3160519        1       141         0.1411168        3
    33         2.3647678        1       142         0.1667403        3
    34         2.4869843        1       143         0.3212018        3
    35         2.9426364        1       144         0.3958179        3
    36         3.0094897        1       145         0.6228389        3
    37         3.4751695        1       146         0.7490124        3
    38         3.7236761        1       147         0.8238145        3
    39         3.9472254        1       148         0.8810793        3
    40         4.1764371        1       149         1.0771867        3
    41         4.2722606        1       150         1.4474733        3
    42         4.3818989        1       151         1.5535651        3
    43         4.5354408        1       152         1.8056665        3
    44         5.0138778        1       153         1.9686639        3
    45         5.1524509        1       154         2.2521347        3
    46         5.8539075        1       155         2.3253553        3
    47         5.9012138        1       156         2.3633935        3
    48         6.2328586        1       157         2.5980887        3
    49         6.3060569        1       158         2.8324906        3
    50         6.5908499        1       159         3.7509156        3
    51         7.0561722        1       160         4.0826743        3
    52         7.3514453        1       161         4.2104727        3
    53         7.7958631        1       162         4.2841368        3
    54         8.2570242        1       163         4.7638815        3
    55        10.5212712        1       164         5.1306814        3
    56        10.6018997        1       165         5.8166533        3
    57        11.1356335        1       166         6.1366741        3
    58        11.1576864        1       167         6.3287021        3
    59        11.6241811        1       168         6.4437152        3
    60        12.2932098        1       169         7.4942510        3
    61        12.8788248        1       170         8.4905963        3
    62        13.3187818        1       171        10.1227710        3
    63        15.6009742        1       172        10.8826271        3
    64        18.0449062        1       173        11.3739414        3
    65        20.6808902        1       174        11.8550060        3
    66        26.5392983        1       175        12.6476149        3
    67        28.2468980        1       176        14.1879766        3
    68        35.0154970        1       177        19.4161473        3
    69        36.8475079        1       178        27.0292851        3
    70        47.1237051        1       179        33.7977461        3
    71        48.5923085        1       180        47.7279451        3
    72        64.2382049        1       181        66.8593515        3
    73        67.8350974        1       182        98.6771182        3
    74        98.7000525        1       183        98.7692878        3
    75        98.7805792        1       184       103.2844046        3
    76       103.3353991        1       185       103.3630578        3
    77       103.4261948        1       186       115.4305870        3
    78       115.1914670        1       187       117.0462079        3
    79       116.0484813        1       188       198.9078026        3
    80       118.0849862        1       189       225.2710368        3
    81       122.9349019        1       190       395.5042243        3
    82       198.5802879        1       191         0.2281641        4
    83       199.3410461        1       192         0.5344867        4
    84       216.7156425        1       193         0.7688581        4
    85       226.0697149        1       194         0.8913261        4
    86       396.3605037        1       195         1.5174764        4
    87       509.4653253        1       196         1.7690236        4
    88       895.5470983        1       197         2.1058497        4
    89         0.0632340        2       198         2.1961921        4
    90         0.1411168        2       199         2.3647678        4
    91         0.1667403        2       200         3.0094897        4
    92         0.3212018        2       201         3.7236761        4
    93         0.3958179        2       202         4.1764371        4
    94         0.6228389        2       203         4.3818989        4
    95         0.7490124        2       204         5.1524509        4
    96         0.8238145        2       205         5.9012138        4
    97         0.8810793        2       206         6.3060569        4
    98         1.0771867        2       207         6.5908499        4
    99         1.4474733        2       208         7.3514453        4
   100         1.5535651        2       209        10.6018997        4
   101         1.8056665        2       210        11.1356335        4
   102         1.9686639        2       211        12.2932098        4
   103         2.2521347        2       212        12.8788248        4
   104         2.3253553        2       213        26.5392983        4
   105         2.3633935        2       214        47.1237051        4
   106         2.5980887        2       215        98.7000525        4
   107         2.8324906        2       216       103.3353991        4
   108         3.7509156        2       217       115.1914670        4
   109         4.0826743        2       218       198.5802879        4
------------------------------------------------------------------------
  -20.6651439365029       -11.3602667183813       -1.52169926825695     
 -0.804647548489628      -0.554715723476309      -0.640334003838339     
 -0.640334003838324       5.965500031885152E-002  7.569695742114385E-002
  0.155967769726433       0.227931871256525       0.228164075892816     
  0.301557771556673       0.392244363675912       0.508116370757853     
  0.534486689181498       0.645068261849239       0.768858136214791     
  0.779945588385378       0.872448242766969       0.891326125239065     
  0.910860549284235        1.19595465258903        1.47439276545326     
   1.51747643590354        1.66707097089557        1.76902356321181     
   1.77067815253321        2.10584973941893        2.13560573096647     
   2.19619205260618        2.31605189159579        2.36476783833740     
   2.48698426531685        2.94263639392461        3.00948970764712     
   3.47516945808632        3.72367612841471        3.94722541412023     
   4.17643706469460        4.27226061936476        4.38189894694438     
   4.53544075676088        5.01387784901153        5.15245094481935     
   5.85390750281622        5.90121375903487        6.23285860202307     
   6.30605693899545        6.59084986209171        7.05617217418065     
   7.35144532641662        7.79586305207280        8.25702418196481     
   10.5212711877075        10.6018996624009        11.1356335068653     
   11.1576863839810        11.6241810543719        12.2932097758811     
   12.8788247967329        13.3187818392056        15.6009741840160     
   18.0449061783554        20.6808901574823        26.5392983101985     
   28.2468980030235        35.0154969550833        36.8475078949699     
[...]
 Convergence information after     9 iterations: 
 Largest element of residual vector :  0.87153286E-05.
 Largest element of DIIS residual   :  0.47320612E-05.
 Convergence information after    10 iterations: 
 Largest element of residual vector :  0.49945236E-05.
 Largest element of DIIS residual   :  0.33509333E-05.
 Convergence information after    11 iterations: 
 Largest element of residual vector :  0.19120503E-05.
 Largest element of DIIS residual   :  0.72944367E-06.
 Convergence information after    12 iterations: 
 Largest element of residual vector :  0.77869358E-06.
 Largest element of DIIS residual   :  0.39409831E-06.
 Convergence information after    13 iterations: 
 Largest element of residual vector :  0.29714023E-06.
 Largest element of DIIS residual   :  0.21188289E-06.
 Convergence information after    14 iterations: 
 Largest element of residual vector :  0.16375540E-06.
 Largest element of DIIS residual   :  0.87355459E-07.
 Perturbed amplitude equations converged in    14 iterations.
  Dominant contributions to perturbed wavefunction:
    7    7  141   28   0.2110470412 ABAB
    7    7   28  141   0.2110470412 ABAB
    7    7  141   37   0.1988206543 ABAB
    7    7   37  141   0.1988206543 ABAB
    7    7  141   55   0.1762654944 ABAB
    7    7   55  141   0.1762654944 ABAB
    7    7  142   28   0.1648240100 ABAB
    7    7   28  142   0.1648240100 ABAB
    7    7  142   37   0.1531843363 ABAB
    7    7   37  142   0.1531843363 ABAB
    5    5  141   44   0.1443748707 ABAB
    5    5   44  141   0.1443748707 ABAB
    7    7  141   53  -0.1401969193 ABAB
    7    7   53  141  -0.1401969193 ABAB
    7    6   28   90   0.1388012868 ABAB
    6    7   90   28   0.1388012868 ABAB
    7    7  141   44   0.1373945658 ABAB
    7    7   44  141   0.1373945658 ABAB
    7    7  141   63   0.1340874252 ABAB
    7    7   63  141   0.1340874252 ABAB
  norm of converged amps    2.45155179154648     
 Starting iterative solution of the perturbed Lambda equations.
 The DIIS procedure is used to accelerate convergence.
 Convergence criterion is 10**(-7).
 Maximum number of iterations is 100.
 Convergence information after     1 iterations: 
 Largest element of residual vector : -0.68052523E-01.
 Largest element of DIIS residual   : -0.68052523E-01.
 Convergence information after     2 iterations: 
 Largest element of residual vector :  0.75849104E-02.
 Largest element of DIIS residual   :  0.51335372E-02.
 Convergence information after     3 iterations: 
 Largest element of residual vector : -0.43454266E-02.
 Largest element of DIIS residual   : -0.37715044E-02.
 Convergence information after     4 iterations: 
 Largest element of residual vector : -0.26854969E-02.
 Largest element of DIIS residual   : -0.21225896E-02.
 Convergence information after     5 iterations: 
 Largest element of residual vector : -0.15684850E-02.
 Largest element of DIIS residual   : -0.72709603E-03.
 Convergence information after     6 iterations: 
 Largest element of residual vector : -0.50954812E-03.
 Largest element of DIIS residual   :  0.12077403E-03.
 Convergence information after     7 iterations: 
 Largest element of residual vector : -0.98033074E-04.
 Largest element of DIIS residual   : -0.45486230E-04.
 Convergence information after     8 iterations: 
 Largest element of residual vector : -0.19986828E-04.
 Largest element of DIIS residual   :  0.19171252E-04.
 Convergence information after     9 iterations: 
 Largest element of residual vector :  0.71717393E-05.
 Largest element of DIIS residual   : -0.39395303E-05.
 Convergence information after    10 iterations: 
 Largest element of residual vector :  0.40406813E-05.
 Largest element of DIIS residual   :  0.28575629E-05.
 Convergence information after    11 iterations: 
 Largest element of residual vector :  0.15104781E-05.
 Largest element of DIIS residual   :  0.66772457E-06.
 Convergence information after    12 iterations: 
 Largest element of residual vector :  0.69650158E-06.
 Largest element of DIIS residual   :  0.46413943E-06.
 Convergence information after    13 iterations: 
 Largest element of residual vector :  0.34308644E-06.
 Largest element of DIIS residual   :  0.26799945E-06.
 Convergence information after    14 iterations: 
 Largest element of residual vector :  0.20449303E-06.
 Largest element of DIIS residual   :  0.10557940E-06.
 Convergence information after    15 iterations: 
 Largest element of residual vector :  0.73584165E-07.
 Largest element of DIIS residual   :  0.33552629E-07.
 Perturbed Lambda equations converged in    15 iterations.
  Dominant contributions to perturbed wavefunction:
    7    7  141   28   0.1988663753 ABAB
    7    7   28  141   0.1988663753 ABAB
    7    7  141   37   0.1883334913 ABAB
    7    7   37  141   0.1883334913 ABAB
    7    7  141   55   0.1647310445 ABAB
    7    7   55  141   0.1647310445 ABAB
    7    7  142   28   0.1570433472 ABAB
    7    7   28  142   0.1570433472 ABAB
    7    7  142   37   0.1465799935 ABAB
    7    7   37  142   0.1465799935 ABAB
    5    5  141   44   0.1385256913 ABAB
    5    5   44  141   0.1385256913 ABAB
    7    7  141   53  -0.1318877174 ABAB
    7    7   53  141  -0.1318877174 ABAB
    7    6   28   90   0.1289224292 ABAB
    6    7   90   28   0.1289224292 ABAB
    7    7  141   44   0.1270261663 ABAB
    7    7   44  141   0.1270261663 ABAB
    7    7  141   63   0.1268393979 ABAB
    7    7   63  141   0.1268393979 ABAB
        The DBOC first-order density matrix is being calculated 
             (Symmetry block 3, perturbation   2)
 term   7.04670283133071     
 final tnorm  0.887468610165567     
  norm contr. I: |<0|L dT/dx|0>|^2   0.000000000000000E+000
  norm contr. II: <0|[nabla(1+L)e-T][nabla e^T]|0>   7.04670283133071     
  total norm contribution   7.04670283133071     
 oo  1.059673509186421E-002
 vv  -47.0091773142332     
 vo  3.973990006568082E-002
  Correlated perturbed 1-el contribution to DBOC  -46.9588406790756       cm**-1
  SUM_I |dc_I/dx|^2 contribution to DBOC   23.5740309236590       cm**-1
 
 
  The total diagonal Born-Oppenheimer correction (DBOC) is:      0.0038713896 a.u.
  The total diagonal Born-Oppenheimer correction (DBOC) is:        849.671804 cm-1
 
 Total CC energy including DBOC  -113.281896048972     
 First-order density matrix is being calculated  (Symmetry block 3, perturbation   2)
 Calculation of the contributions of <pq||rs> to dI(i,j)/dx required   7.2 seconds.
 Calculation of the contributions of <pq||rs> to dI(a,b)/dx required  18.2 seconds.
 Calculation of the contributions of <pq||rs> to dI(i,a)/dx required   9.9 seconds.
 First-order Z-vector equations are solved for 1 perturbation.
 Convergence reached after  18 iterations.
        U*G(pq,rs) contribution is being calculated
             (Symmetry block 3, perturbation   2)

 CCSD contribution to force constants 

        0.0000000000        0.0000000000        0.0000000000
        0.0000000000        0.0000000000        0.0000000000
        0.0000000000        0.0000000000        0.0000000000
        0.0000000000        0.0000000000        0.0000000000
        0.0000000000        0.0000000000        0.0000000000
        0.0000000000        0.0000000000        0.0000000000
        0.0000000000        0.0000000000        0.0000000000
        0.0000000000        0.0000000000        0.0000000000
        0.0000000000        0.0000000000        0.0000000000
        0.0000000000        0.0000000000        0.0000000000
        0.0000000000        0.0000000000        0.0000000000
        0.0000000000       -2.0363451680        2.0363451680

 CCSD contribution to dipole derivatives 

        0.0000000000        0.0000000000        0.0000000000
        0.0000000000        0.0000000000        0.0000000000
        0.0000000000        0.0000000000        0.0000000000
        0.0000000000        0.0000000000       -0.0444812691
        0.0000000000        0.0000000000        0.0000000000
        0.0000000000        0.0000000000        0.0000000000
 @CHECKOUT-I, Total execution time (CPU/WALL):     1257.98/     495.72 seconds.
--executable xsdcc finished with status     0 in      496.03 seconds (walltime).
 --invoking executable--
/nfs/workspaces/public/cfour_mpi/bin/xanti
 @GETMEM-I,  Allocated    3814 MB of main memory.
 CCSD MO derivative gammas will be sorted to Mulliken order.
 @CHECKOUT-I, Total execution time (CPU/WALL):       13.16/      26.18 seconds.
--executable xanti finished with status     0 in       26.34 seconds (walltime).
 --invoking executable--
/nfs/workspaces/public/cfour_mpi/bin/xbcktrn
 @GETMEM-I,  Allocated    3814 MB of main memory.
 CCSD MO derivative gammas will be transformed to the AO basis.
 @CHECKOUT-I, Total execution time (CPU/WALL):       28.66/      14.62 seconds.
--executable xbcktrn finished with status     0 in       14.68 seconds (walltime).
 --invoking executable--
/nfs/workspaces/public/cfour_mpi/bin/xvdint
 @GETMEM-I,  Allocated    3814 MB of main memory.
 One- and two-electron integral derivatives are calculated
 for RHF-CC/MBPT hessians and dipole derivatives.
 Spherical gaussians are used.
  magnet F F
                    8722  records have been written to the Sort file.
  Total length of Sort file :             178609116  words.
 Evaluation of 2el integral derivatives

                      Two-electron integral gradient
                      ------------------------------

                         C #1 z     0.0000000000
                         O #2 z     0.0000000000


 C #1       0.0000000000           -0.6496686096            0.0000000000
 O #2       0.0000000000            0.6496686096            0.0000000000


 Evaluation of 2e integral derivatives required  361.79 seconds.
  contribution to Hessian
        0.0000000000        0.0000000000        0.0000000000
        0.0000000000       -0.6496686096        0.6496686096
 @CHECKOUT-I, Total execution time (CPU/WALL):      361.78/      71.51 seconds.
--executable xvdint finished with status     0 in       71.66 seconds (walltime).
 --invoking executable--
/nfs/workspaces/public/cfour_mpi/bin/xanti
 @GETMEM-I,  Allocated    3814 MB of main memory.
 CCSD MO gammas will be sorted to Mulliken order.
 @CHECKOUT-I, Total execution time (CPU/WALL):       15.28/      46.98 seconds.
--executable xanti finished with status     0 in       47.12 seconds (walltime).
 --invoking executable--
/nfs/workspaces/public/cfour_mpi/bin/xbcktrn
 @GETMEM-I,  Allocated    3814 MB of main memory.
 CCSD MO gammas will be transformed to the AO basis.
 @CHECKOUT-I, Total execution time (CPU/WALL):       35.72/      19.48 seconds.
--executable xbcktrn finished with status     0 in       19.56 seconds (walltime).
 --invoking executable--
/nfs/workspaces/public/cfour_mpi/bin/xvdint
 @GETMEM-I,  Allocated    3814 MB of main memory.
 One- and two-electron integral derivatives are calculated
 for RHF-CC/MBPT hessians and dipole derivatives.
 Spherical gaussians are used.
  magnet F F

                     Kinetic energy integral gradient
                     --------------------------------

                         C #1 z    -1.5069294139
                         O #2 z     1.5069294139


 C #1       0.0000000000            0.0000000000           -1.5069294139
 O #2       0.0000000000            0.0000000000            1.5069294139



                   Nuclear attraction integral gradient
                   ------------------------------------

                         C #1 z    23.6860892786
                         O #2 z   -23.6860892786


 C #1       0.0000000000            0.0000000000           23.6860892786
 O #2       0.0000000000            0.0000000000          -23.6860892786



                      Reorthonormalization gradient
                      -----------------------------

                         C #1 z     0.0000000000
                         O #2 z     0.0000000000


 C #1       0.0000000000            0.0000000000            0.0000000000
 O #2       0.0000000000            0.0000000000            0.0000000000



                     Kinetic energy integral Hessian
                     -------------------------------


           Symmetry 1

           C #1 z      O #2 z

 C #1 z    1.093272
 O #2 z   -1.093272    1.093272


           Symmetry 2

           C #1 x      O #2 x

 C #1 x   -2.007637
 O #2 x    2.007637   -2.007637


           Symmetry 3

           C #1 y      O #2 y

 C #1 y   -2.007637
 O #2 y    2.007637   -2.007637




           C #1 x      C #1 y      C #1 z      O #2 x      O #2 y      O #2 z

 C #1 x   -2.007637
 C #1 y    0.000000   -2.007637
 C #1 z    0.000000    0.000000    1.093272

 O #2 x    2.007637    0.000000    0.000000   -2.007637
 O #2 y    0.000000    2.007637    0.000000    0.000000   -2.007637
 O #2 z    0.000000    0.000000   -1.093272    0.000000    0.000000    1.093272




                   Nuclear attraction integral Hessian
                   -----------------------------------


           Symmetry 1

           C #1 z      O #2 z

 C #1 z  -13.321366
 O #2 z   13.321366  -13.321366


           Symmetry 2

           C #1 x      O #2 x

 C #1 x   21.243702
 O #2 x  -21.243702   21.243702


           Symmetry 3

           C #1 y      O #2 y

 C #1 y   21.243702
 O #2 y  -21.243702   21.243702




           C #1 x      C #1 y      C #1 z      O #2 x      O #2 y      O #2 z

 C #1 x   21.243702
 C #1 y    0.000000   21.243702
 C #1 z    0.000000    0.000000  -13.321366

 O #2 x  -21.243702    0.000000    0.000000   21.243702
 O #2 y    0.000000  -21.243702    0.000000    0.000000   21.243702
 O #2 z    0.000000    0.000000   13.321366    0.000000    0.000000  -13.321366




                Highest order reorthonormalization Hessian
                ------------------------------------------


           Symmetry 1

           C #1 z      O #2 z

 C #1 z    0.000000
 O #2 z    0.000000    0.000000


           Symmetry 2

           C #1 x      O #2 x

 C #1 x    0.000000
 O #2 x    0.000000    0.000000


           Symmetry 3

           C #1 y      O #2 y

 C #1 y    0.000000
 O #2 y    0.000000    0.000000




           C #1 x      C #1 y      C #1 z      O #2 x      O #2 y      O #2 z




                Electronic contributions to dipole moment
                -----------------------------------------

                               au             Debye

                    z     -0.89969308     -2.28679210

  Conversion factor used: 1 a.u. =   2.54174691 Debye 



   Electronic contributions to static part of dipole moment derivatives
   --------------------------------------------------------------------


                     Total dipole moment derivatives
                     -------------------------------


           Symmetry 1
                              Ez

               C #1 z    -5.71275767
               O #2 z    -8.28724233

           Symmetry 2
                              Ex

               C #1 x    -5.79773674
               O #2 x    -8.20226326

           Symmetry 3
                              Ey

               C #1 y    -5.79773674
               O #2 y    -8.20226326



                       Ex          Ey          Ez

      C #1    x   -5.797737    0.000000    0.000000
      C #1    y    0.000000   -5.797737    0.000000
      C #1    z    0.000000    0.000000   -5.712758

      O #2    x   -8.202263    0.000000    0.000000
      O #2    y    0.000000   -8.202263    0.000000
      O #2    z    0.000000    0.000000   -8.287242

 Evaluation of 1e integral derivatives required    1.71 seconds.
                    8815  records have been written to the Sort file.
  Total length of Sort file :             180513570  words.
 Evaluation of 2el integral derivatives

                      Two-electron integral gradient
                      ------------------------------

                         C #1 z   -11.1717787252
                         O #2 z    11.1717787252


 C #1       0.0000000000            0.0000000000          -11.1717787252
 O #2       0.0000000000            0.0000000000           11.1717787252


 Evaluation of 2e integral derivatives required  751.90 seconds.

                            Molecular gradient
                            ------------------

                         C #1 z     0.4481417267
                         O #2 z    -0.4481417267


 C #1       0.0000000000            0.0000000000            0.4481417267
 O #2       0.0000000000            0.0000000000           -0.4481417267


  Molecular gradient norm 0.634E+00

                            Molecular hessian
                            -----------------


           Symmetry 1

           C #1 z      O #2 z

 C #1 z   65.857221
 O #2 z  -65.857221   65.857221


           Symmetry 2

           C #1 x      O #2 x

 C #1 x    2.777553
 O #2 x   -2.777553    2.777553


           Symmetry 3

           C #1 y      O #2 y

 C #1 y    2.777553
 O #2 y   -2.777553    2.777553




           C #1 x      C #1 y      C #1 z      O #2 x      O #2 y      O #2 z

 C #1 x    2.777553
 C #1 y    0.000000    2.777553
 C #1 z    0.000000    0.000000   65.857221

 O #2 x   -2.777553    0.000000    0.000000    2.777553
 O #2 y    0.000000   -2.777553    0.000000    0.000000    2.777553
 O #2 z    0.000000    0.000000  -65.857221    0.000000    0.000000   65.857221




                           Total dipole moment
                           -------------------

                               au             Debye

                    z     -0.04719370     -0.11995444

  Conversion factor used: 1 a.u. =   2.54174691 Debye 



                     Total dipole moment derivatives
                     -------------------------------


           Symmetry 1
                              Ez

               C #1 z     0.71560089
               O #2 z    -0.71560089

           Symmetry 2
                              Ex

               C #1 x    -0.02519230
               O #2 x     0.02519230

           Symmetry 3
                              Ey

               C #1 y    -0.02519230
               O #2 y     0.02519230



                       Ex          Ey          Ez

      C #1    x   -0.025192    0.000000    0.000000
      C #1    y    0.000000   -0.025192    0.000000
      C #1    z    0.000000    0.000000    0.715601

      O #2    x    0.025192    0.000000    0.000000
      O #2    y    0.000000    0.025192    0.000000
      O #2    z    0.000000    0.000000   -0.715601

 @CHECKOUT-I, Total execution time (CPU/WALL):      753.59/     136.31 seconds.
--executable xvdint finished with status     0 in      136.53 seconds (walltime).
 --invoking executable--
/nfs/workspaces/public/cfour_mpi/bin/xjoda
  @GTFLGS-I, Hessian will be transformed to curvilinear coordinates.
  @GTFLGS-I, Hessian will be transformed to curvilinear coordinates.
  igrd and ihes are                      0                     1
  gradient from JOBARC 
   0.000000000000000   0.000000000000000   0.448141726726326
   0.000000000000000   0.000000000000000  -0.448141726726326
 
  @PROJFCM-I, Projecting force constant matrix onto totally symmetric subspace.
  Largest difference between matrix elements of symmetrized
  and unsymmetrized FCM :     0.1174704778E-10.
  read isotopes from ZMAT file 
 
  Summary of diagonal Born-Oppenheimer correction at the correlated level
  The total diagonal Born-Oppenheimer correction (DBOC) is:      0.0038713896 a.u.
  The total diagonal Born-Oppenheimer correction (DBOC) is:        849.671804 cm-1
  The total diagonal Born-Oppenheimer correction (DBOC) is:            10.164 kJ/mole
  hellooooooo 
  readis is  F
 
 @CHECKOUT-I, Total execution time (CPU/WALL):        0.03/       0.13 seconds.
--executable xjoda finished with status     0 in        0.21 seconds (walltime).
  The final electronic energy is      -113.281896048971745 a.u. 
  This computation required                         4409.47 seconds (walltime).
