 --invoking executable--
/nfs/workspaces/public/cfour_mpi/bin/xjoda


   *************************************************************************
         <<<     CCCCCC     CCCCCC   |||     CCCCCC     CCCCCC   >>>
       <<<      CCC        CCC       |||    CCC        CCC         >>>
      <<<      CCC        CCC        |||   CCC        CCC            >>>
    <<<        CCC        CCC        |||   CCC        CCC              >>>
      <<<      CCC        CCC        |||   CCC        CCC            >>>
       <<<      CCC        CCC       |||    CCC        CCC         >>>
         <<<     CCCCCC     CCCCCC   |||     CCCCCC     CCCCCC   >>>
   *************************************************************************

     ****************************************************************
     * CFOUR Coupled-Cluster techniques for Computational Chemistry *
     ****************************************************************
 

   Department of Chemistry                Institut fuer Physikalische Chemie
   University of Florida                  Universitaet Mainz
   Gainesville, FL 32611, USA             D-55099 Mainz, Germany

   Department of Chemistry                Fakultaet fuer Chemie und Biowiss.
   Johns Hopkins University               Karlsruher Institut fuer Technologie
   Baltimore, MD 21218, USA               D-76131 Karlsruhe, Germany

   Department of Chemistry                Department of Physical Chemistry
   Southern Methodist University          Eotvos Lorand University
   Dallas, TX 75275, USA                  H-1053 Budapest, Hungary

 
                       Version 2.1
 
                     vincent.theory.phys.ucl.ac.uk                     
                     Sat  1 Mar 15:52:46 GMT 2025                      
                     integer*8 version is running
 
********************************************************************************
*                          Input from ZMAT file                                *
********************************************************************************
Carbon Monoxide DBOC calculation                                                
C                                                                               
O 1 r                                                                           
                                                                                
r=1.0862068965517242                                                            
                                                                                
                                                                                
*CFOUR(CALC=CCSD,BASIS=AUG-PCVQZ,SCF_CONV=10                                    
CC_CONV=14,DBOC=ON,MEMORY=500000000                                             
ZFIELD=200)                                                                     
                                                                                
%isotopes                                                                       
12                                                                              
18                                                                              
********************************************************************************
  @GTFLGS-I, Hessian will be transformed to curvilinear coordinates.
    -------------------------------------------------------------------
                    CFOUR Control Parameters 
    -------------------------------------------------------------------
        External           Internal           Value            Units
          Name               Name
    -------------------------------------------------------------------
       ABCDTYPE             IABCDT         STANDARD    [  0]    ***   
       ANHARMONIC           IANHAR         OFF         [  0]    ***   
       ANH_ALGORIT          IANALG         STANDARD    [  0]    ***   
       ANH_DERIVAT          IANDER         SECOND      [  1]    ***   
       ANH_MODE             ANHMOD         VIBRATION   [  0]    ***   
       ANH_STEPSIZ          ICUBST             50000          x 10-6  
       ANH_SYMMETR          IANHSM         ABELIAN     [  0]    ***   
       AO_LADDERS           IAOLAD         SINGLEPASS  [  1]    ***   
       AV_SCF               IAVSCF         OFF         [  0]    ***   
       BASIS                IBASIS         AUG-PCVQZ   [ 52]    ***   
       BOTHVECTORS          BOTHVC         OFF         [  0]    ***   
       BOX_POTENT           IPIAB          OFF         [  0]    ***   
       BREIT                IBREIT         OFF         [  0]    ***   
       BRUCK_CONV           IBRTOL          10D-  4             ***   
       BRUECKNER            IBRKNR         OFF         [  0]    ***   
       BUFFERSIZE           IBUFFS              4096            ***   
       CACHE_RECS           ICHREC             10               ***   
       CALCLEVEL            ICLLVL         CCSD        [ 10]    ***   
       CCORBOPT             ICCORB         OFF         [  0]  x 0.01  
       CC_CONV              ICCCNV          10D- 14             ***   
       CC_EXPORDER          ICCEOR              5               ***   
       CC_EXTRAPOL          ICCEXT         DIIS        [  1]    ***   
       CC_GUESS             ICCGES         MP2         [  0]    ***   
       CC_MAXCYC            ICCCYC            100              cycles 
       CC_PROGRAM           ICCPRO         VCC         [  0]    ***   
       CHARGE               ICHRGE              0               ***   
       CHOLESKY             ICHOLE         OFF         [  0]    ***   
       CIS_CONV             ICISTL              5               ***   
       COMM_SIZE            IPSIZE            ***               ***   
       CONSTANT             ICONST         OLD         [  1]    ***   
       CONTINUUM            ICONTU         NONE        [  0]    ***   
       CONTRACTION          ICNTYP         GENERAL     [  1]    ***   
       COORDINATES          ICOORD         INTERNAL    [  0]    ***   
       CPHF_CONVER          ICPHFT          10D- 16             ***   
       CPHF_MAXCYC          ICPHFC             64              cycles 
       CUBIC                ICUBIC         OFF         [  0]    ***   
       CURVILINEAR          ICURVY         ON          [  1]    ***   
       DBOC                 IDBOC          ON          [  1]    ***   
       DCT                  IDCT           OFF         [  0]    ***   
       DERIV_LEV            IDRLVL         SECOND      [  2]    ***   
       DEVMEM_SIZE          IDVMEM          50000000           MByte  
       DIAG_MRCC            IEOMST          10D-  0             ***   
       DIFF_TYPE            IDIFTY         RELAXED     [  0]    ***   
       DIRECT               IDIRCT         OFF         [  0]    ***   
       DROPMO               IDRPMO      NONE         
       ECP                  IECP           OFF         [  0]    ***   
       EIGENVECTOR          IVEC                1               ***   
       EL_ANHARM            IELANH         OFF         [  0]    ***   
       EOMFOLLOW            IEOMSR         ENERGY      [  0]    ***   
       EOMIP                IEOMIP         OFF         [  0]    ***   
       EOMLEVEL             HBARFM         SAME        [  0]    ***   
       EOM_MRCC             IMRCCE         NEW         [  1]    ***   
       EOM_NONIT            EOMNON         OFF         [  0]    ***   
       EOM_NSING            IEOMSI          10D-  0             ***   
       EOM_NSTATES          IMRCCD         DAVIDSON    [  0]    ***   
       EOM_NTRIP            IEOMTR          10D-  0             ***   
       EOM_ORDER            IEXORD         ENERGY      [  0]    ***   
       EOM_PROPSTA          IEOMST              0               ***   
       ESTATE_CONV          IEXTOL          10D-  5             ***   
       ESTATE_DIAG          IEXDIG         ITERATIVE   [  0]    ***   
       ESTATE_LOCK          IESLOC         ON          [  1]    ***   
       ESTATE_MAXC          IEXMXC             40               ***   
       ESTATE_PROP          IEXPRP         OFF         [  0]    ***   
       EVAL_HESS            IRECAL              0            # of cyc.
       EXCITATION           IEXCIT              0               ***   
       EXCITE               IEXCIT         NONE        [  0]    ***   
       EXTERN_POT           IEXPOT         OFF         [  0]    ***   
       FCGRADNEW            IFCGNW         OFF         [  0]    ***   
       FC_FIELD             IFINFC              0             x 10-6  
       FD_CALTYPE           IFDCAL         GRADONLY    [  0]    ***   
       FD_PROJECT           IFDPRJ         OFF         [  1]    ***   
       FD_STEPSIZE          IDISFD              0            10-4 bohr
       FD_USEGROUP          IFDGRP         FULL        [  0]    ***   
       FILE_RECSIZ          IFLREC              4096           words  
       FINITE_PERT          IFIPER              0             x 10-6  
       FIXGEOM              IFIXGM         OFF         [  0]    ***   
       FOCK                 IFOCK          AO          [  1]    ***   
       FREQ_ALGORI          IVIALG         STANDARD    [  0]    ***   
       FROZEN_CORE          IFROCO         OFF         [  0]    ***   
       GAMMA_ABCD           IGABCD         STORE       [  0]    ***   
       GAMMA_ABCI           IGABCI         STORE       [  0]    ***   
       GENBAS_1             IGNBS1              0               ***   
       GENBAS_2             IGNBS2              0               ***   
       GENBAS_3             IGNBS3              0               ***   
       GENBAS_4             IGNBS4              0               ***   
       GEO_CONV             ICONTL              5              H/bohr 
       GEO_MAXCYC           IOPTCY             50               ***   
       GEO_MAXSTEP          IMXSTP            300            millibohr
       GEO_METHOD           INR            SINGLE_POINT[  5]    ***   
       GIAO                 IGIAO          OFF         [  1]    ***   
       GIMIC                IGIMIC         OFF         [  0]    ***   
       GRID                 IGRID          OFF         [  0]    ***   
       GRID_ALGO            IGALGO         SERIAL      [  0]    ***   
       GUESS                IGUESS         MOREAD      [  0]    ***   
       HBAR                 IHBAR          OFF         [  0]    ***   
       HESS_TYPE            IHESTP         SCF         [  0]    ***   
       HF2_FILE             IHF2Fl         USE         [  1]    ***   
       HFSTABILITY          ISTABL         OFF         [  0]    ***   
       INCORE               INCORE         OFF         [  0]    ***   
       INPUT_MRCC           IMRCC          ON          [  1]    ***   
       INTEGRALS            INTTYP         VMOL        [  1]    ***   
       JODA_PRINT           IJPRNT              0               ***   
       KEYWORD_OUT          IDMPKW         NO          [  0]    ***   
       LINDEP_TOL           ILINDP              8               ***   
       LINEQ_CONV           IZTACN          10D-  7           cycles  
       LINEQ_EXPOR          ILMAXD              5               ***   
       LINEQ_MAXCY          ILMAXC            100               ***   
       LINEQ_TYPE           ILTYPE         DIIS        [  1]    ***   
       LOCK_ORBOCC          ILOCOC         OFF         [  0]    ***   
       MEMORY_SIZE          IMEMSZ         500000000           words  
       MEM_UNIT             IMEMU          INTEGERWORDS[  0]    ***   
       MRCC                 IMRCCC         OFF         [  0]    ***   
       MULTIPLICTY          IMULTP              1               ***   
       NACOUPLING           IVCOUP         OFF         [  0]    ***   
       NEGEVAL              IDIE           ABORT       [  0]    ***   
       NEWNORM              INEWNO         OFF         [  0]    ***   
       NON-HF               INONHF         OFF         [  0]    ***   
       NTOP_TAMP            ITOPT2             15               ***   
       NUC_MODEL            INUCMO         POINT       [  0]    ***   
       OCCUPATION           IOCCU   ESTIMATED BY SCF 
       OPEN-SHELL           IOPEN          SPIN-ORBITAL[  0]    ***   
       OPTVIB               IOPTVB         OFF         [  0]    ***   
       ORBITALS             IORBTP         STANDARD    [  0]    ***   
       PARALLEL             IPARAL         ON          [  1]    ***   
       PARA_INT             IPINTS         ON          [  1]    ***   
       PARA_PRINT           IPPRIN              0               ***   
       PERT_ORB             IPTORB         STANDARD    [  0]    ***   
       POINTS               IGRDFD              0               ***   
       PRINT                IPRNT               0               ***   
       PROPS                IPROPS         OFF         [  0]    ***   
       PROP_INTEGR          IINTYP         INTERNAL    [  0]    ***   
       PSI                  IPSI           OFF         [  0]    ***   
       QC_ALG               IQCALG         FLM         [  0]    ***   
       QC_LINALG            IQCLIN         TRIDIAG     [  2]    ***   
       QC_MAXCYC            IQCMAX          10D-100           cycles  
       QC_MAXSCFCY          IQCMSC          10D- 15           cycles  
       QC_RTRUST            IQCRTR          10D-  0           x 10-3  
       QC_SKIPSCF           IQCSKI         OFF         [  0]    ***   
       QC_START             IQCSTA          10D-  1             ***   
       QRHFGUESS            IQGUES         OFF         [  0]    ***   
       QUARTIC              IQUART         OFF         [  0]    ***   
       RAMAN_INT            IRAMIN         OFF         [  0]    ***   
       RAMAN_ORB            IRAMRE         UNRELAXED   [  0]    ***   
       RDO                  IRDOFM         ON          [  1]    ***   
       REDUCE_REPR          REDREP         Ir          [  0]    ***   
       REFERENCE            IREFNC         RHF         [  0]    ***   
       RELATIVIST           IRELAT         OFF         [  0]    ***   
       RELAX_DENS           IRDENS         ON          [  1]    ***   
       RESET_FLAGS          IRESET         OFF         [  0]    ***   
       RESTART_CC           ICCRES         OFF         [  0]    ***   
       ROT_EVEC             ROTVEC              0               ***   
       SAVE_INTS            ISVINT         OFF         [  0]    ***   
       SCALE_ON             ISTCRT              0               ***   
       SCF_CONV             ISCFCV          10D- 10             ***   
       SCF_DAMPING          IDAMP               0             x 10-3  
       SCF_EXPORDE          IRPPOR              6               ***   
       SCF_EXPSTAR          IRPPLS              8               ***   
       SCF_EXTRAPO          IRPP           ON          [  1]    ***   
       SCF_MAXCYC           ISCFCY            150              cycles 
       SCF_NOSTOP           ISCFST         OFF         [  0]    ***   
       SCF_PRINT            ISCFPR              0               ***   
       SCF_PROG             ISCFPR         SCF         [  0]    ***   
       SD_FIELD             IFINSD              0             x 10-6  
       SOPERT               IPERSO         OFF         [  0]    ***   
       SPHERICAL            IDFGHI         ON          [  1]    ***   
       SPINORBIT            ISOCAL         OFF         [  0]    ***   
       SPINROTATIO          ISRCON         OFF         [  0]    ***   
       SPIN_FLIP            ISPFLP         OFF         [  0]    ***   
       SPIN_ORBIT           ISPORB         OFF         [  0]    ***   
       SPIN_SCAL            ISCSMP         OFF         [  0]    ***   
       STEEPSCALE           ISTPSC              1000          x 10-3  
       SUBGROUP             ISUBGP         DEFAULT     [  0]    ***   
       SUBGRPAXIS           ISBXYZ         X           [  0]    ***   
       SYMMETRY             ISYM           ON          [  0]    ***   
       SYM_CHECK            ISYMCK         OVERRIDE    [  1]    ***   
       T3_EXTRAPOL          IT3EXT         OFF         [  0]    ***   
       T4_EXTRAPOL          IT4EXP         OFF         [  0]    ***   
       TAMP_SUM             IEVERY              5               ***   
       TESTSUITE            ITESTS         OFF         [  0]    ***   
       THERMOCH             ITHERM         OFF         [  0]    ***   
       TOL_CHOLESK          ITOLCH          10D-  4             ***   
       TRANGRAD             IRESRM         OFF         [  0]    ***   
       TRANS_INV            ITRAIN         IGNORE      [  1]    ***   
       TREAT_PERT           ITREAT         SIMULTANEOUS[  0]    ***   
       TRIP_ALGORI          ITRALG         NORMAL      [  0]    ***   
       UIJ_THRESHO          IUIJTH              1               ***   
       UNITS                IUNITS         ANGSTROM    [  0]    ***   
       UNOS                 IUNOS          OFF         [  0]    ***   
       UPDATE_HESS          IHUPDT         ON          [  1]    ***   
       VIBPHASE             ISETPH         STANDARD    [  0]    ***   
       VIBRATION            IVIB           ANALYTIC    [  1]    ***   
       VIB_ALGORIT          IGEALG         STANDARD    [  0]    ***   
       VNATORB              IVNORB         OFF         [  0]    ***   
       VTRAN                IVTRAN         FULL/PARTIAL[  0]    ***   
       XFIELD               IXEFLD              0             x 10-6  
       XFORM_TOL            IXFTOL          10D- 11             ***   
       YFIELD               IYEFLD              0             x 10-6  
       ZFIELD               IZEFLD            200             x 10-6  
       ZSCALE_EXP           IZEXPS         OFF         [  0]    ***   
    -------------------------------------------------------------------
   2 entries found in Z-matrix 
   Job Title : Carbon Monoxide DBOC calculation                                                
   There are  1 unique internal coordinates.
   Of these,  0 will be optimized.
   User supplied Z-matrix: 
--------------------------------------------------------------------------------
       SYMBOL    BOND      LENGTH    ANGLE     ANGLE     DIHED     ANGLE
                  TO      (ANGST)    WRT      (DEG)      WRT      (DEG)
--------------------------------------------------------------------------------
        C    
        O          1         r    
                  *Initial values for internal coordinates* 
                      Name             Value
                        r               1.0862068966
--------------------------------------------------------------------------------
  read isotopes from ZMAT file 
   Rotational constants (in cm-1): 
          1.9844814843             1.9844814843
   Rotational constants (in MHz): 
      59493.2665383169         59493.2665383169
********************************************************************************
   The full molecular point group is CXv .
   The largest Abelian subgroup of the full molecular point group is C2v .
   The computational point group is C2v .
********************************************************************************
--------------------------------------------------------------------------------
   Analysis of internal coordinates specified by Z-matrix 
--------------------------------------------------------------------------------
   *The nuclear repulsion energy is   23.384588038095234 a.u.
   *There is   1 degree of freedom within the tot. symm. molecular subspace.
   *Z-matrix requests optimization of   0 coordinates.
   *The optimization is constrained.
   *The following   1 parameters can have non-zero 
    derivatives within the totally symmetric subspace:
             r    [ 1]
   *The following   0 parameters are to be optimized:

   *The following coordinates must be varied in an  unconstrained optimization.
             r    [ 1]
--------------------------------------------------------------------------------


 ----------------------------------------------------------------
         Coordinates used in calculation (QCOMP) 
 ----------------------------------------------------------------
 Z-matrix   Atomic            Coordinates (in bohr)
  Symbol    Number           X              Y              Z
 ----------------------------------------------------------------
     C         6        -0.00000000     0.00000000     1.23155741
     O         8         0.00000000     0.00000000    -0.82107657
 ----------------------------------------------------------------
 
   Interatomic distance matrix (Angstroms) 
 
                 C             O    
                [ 1]        [ 2]
  C    [ 1]     0.00000
  O    [ 2]     1.08621     0.00000
 rotcon2
   Rotational constants (in cm-1): 
          1.9844814843             0.0000000000
   Rotational constants (in MHz): 
      59493.2665383169             0.0000000000
  ECPDATA file not present.   Using default ECPDATA. 
  @GTFLGS-I, Hessian will be transformed to curvilinear coordinates.
  There are  218 basis functions.
 @CHECKOUT-I, Total execution time (CPU/WALL):        0.15/       0.26 seconds.
--executable xjoda finished with status     0 in        0.29 seconds (walltime).
 --invoking executable--
/nfs/workspaces/public/cfour_mpi/bin/xvmol
 SERIAL VERSION OF MOLECULE STARTED
********************************************************************************
                    INPUT FROM MOL FILE
********************************************************************************
INTGRL        1    0    1    0    0    0    0    0    0                         
         *** CFOUR Program System (Release V0.1) ***                            
Carbon Monoxide DBOC calculation                                                
    2    2 X  Y       0.10E-08              0    0                              
   9999.00      3.00                                                            
          6.00000000    1    5    1    1    1    1    1                         
C #1  -0.000000000000000   0.000000000000000   1.231557405674244                
   16    9                                                                      
   33980.0000000000       9.100000000000000E-005 -1.900000000000000E-005        
  0.000000000000000E+000  0.000000000000000E+000  0.000000000000000E+000        
  0.000000000000000E+000  0.000000000000000E+000  0.000000000000000E+000        
  0.000000000000000E+000                                                        
   5089.00000000000       7.040000000000000E-004 -1.510000000000000E-004        
  0.000000000000000E+000  0.000000000000000E+000  0.000000000000000E+000        
  0.000000000000000E+000  0.000000000000000E+000  0.000000000000000E+000        
  0.000000000000000E+000                                                        
   1157.00000000000       3.693000000000000E-003 -7.850000000000000E-004        
  0.000000000000000E+000  0.000000000000000E+000  0.000000000000000E+000        
  0.000000000000000E+000  0.000000000000000E+000  0.000000000000000E+000        
  0.000000000000000E+000                                                        
   326.600000000000       1.536000000000000E-002 -3.324000000000000E-003        
  0.000000000000000E+000  0.000000000000000E+000  0.000000000000000E+000        
  0.000000000000000E+000  0.000000000000000E+000  0.000000000000000E+000        
  0.000000000000000E+000                                                        
   106.100000000000       5.292900000000000E-002 -1.151200000000000E-002        
  0.000000000000000E+000  0.000000000000000E+000  0.000000000000000E+000        
  0.000000000000000E+000  0.000000000000000E+000  0.000000000000000E+000        
  0.000000000000000E+000                                                        
   38.1100000000000       0.147043000000000      -3.416000000000000E-002        
  0.000000000000000E+000  0.000000000000000E+000  0.000000000000000E+000        
  0.000000000000000E+000  0.000000000000000E+000  0.000000000000000E+000        
  0.000000000000000E+000                                                        
   14.7500000000000       0.305631000000000      -7.717300000000001E-002        
  0.000000000000000E+000  0.000000000000000E+000  0.000000000000000E+000        
  0.000000000000000E+000  0.000000000000000E+000  0.000000000000000E+000        
  0.000000000000000E+000                                                        
   6.03500000000000       0.399345000000000      -0.141493000000000             
  0.000000000000000E+000  0.000000000000000E+000  0.000000000000000E+000        
  0.000000000000000E+000  0.000000000000000E+000  0.000000000000000E+000        
  0.000000000000000E+000                                                        
   2.53000000000000       0.217051000000000      -0.118019000000000             
  0.000000000000000E+000  0.000000000000000E+000  0.000000000000000E+000        
  0.000000000000000E+000  0.000000000000000E+000  0.000000000000000E+000        
  0.000000000000000E+000                                                        
  0.735500000000000       1.589400000000000E-002  0.273806000000000             
   1.00000000000000       0.000000000000000E+000  0.000000000000000E+000        
  0.000000000000000E+000  0.000000000000000E+000  0.000000000000000E+000        
  0.000000000000000E+000                                                        
  0.290500000000000      -3.084000000000000E-003  0.586510000000000             
  0.000000000000000E+000   1.00000000000000       0.000000000000000E+000        
  0.000000000000000E+000  0.000000000000000E+000  0.000000000000000E+000        
  0.000000000000000E+000                                                        
  0.111100000000000       9.779999999999999E-004  0.285430000000000             
  0.000000000000000E+000  0.000000000000000E+000   1.00000000000000             
  0.000000000000000E+000  0.000000000000000E+000  0.000000000000000E+000        
  0.000000000000000E+000                                                        
   7.21600000000000       0.000000000000000E+000  0.000000000000000E+000        
  0.000000000000000E+000  0.000000000000000E+000  0.000000000000000E+000        
   1.00000000000000       0.000000000000000E+000  0.000000000000000E+000        
  0.000000000000000E+000                                                        
   19.5700000000000       0.000000000000000E+000  0.000000000000000E+000        
  0.000000000000000E+000  0.000000000000000E+000  0.000000000000000E+000        
  0.000000000000000E+000   1.00000000000000       0.000000000000000E+000        
  0.000000000000000E+000                                                        
   53.0730000000000       0.000000000000000E+000  0.000000000000000E+000        
  0.000000000000000E+000  0.000000000000000E+000  0.000000000000000E+000        
  0.000000000000000E+000  0.000000000000000E+000   1.00000000000000             
  0.000000000000000E+000                                                        
  4.145000000000000E-002  0.000000000000000E+000  0.000000000000000E+000        
  0.000000000000000E+000  0.000000000000000E+000  0.000000000000000E+000        
  0.000000000000000E+000  0.000000000000000E+000  0.000000000000000E+000        
   1.00000000000000                                                             
   10    8                                                                      
   34.5100000000000       5.378000000000000E-003  0.000000000000000E+000        
  0.000000000000000E+000  0.000000000000000E+000  0.000000000000000E+000        
  0.000000000000000E+000  0.000000000000000E+000  0.000000000000000E+000        
   7.91500000000000       3.613200000000000E-002  0.000000000000000E+000        
  0.000000000000000E+000  0.000000000000000E+000  0.000000000000000E+000        
  0.000000000000000E+000  0.000000000000000E+000  0.000000000000000E+000        
   2.36800000000000       0.142493000000000       0.000000000000000E+000        
  0.000000000000000E+000  0.000000000000000E+000  0.000000000000000E+000        
  0.000000000000000E+000  0.000000000000000E+000  0.000000000000000E+000        
  0.813200000000000       0.342150000000000        1.00000000000000             
  0.000000000000000E+000  0.000000000000000E+000  0.000000000000000E+000        
  0.000000000000000E+000  0.000000000000000E+000  0.000000000000000E+000        
  0.289000000000000       0.463864000000000       0.000000000000000E+000        
   1.00000000000000       0.000000000000000E+000  0.000000000000000E+000        
  0.000000000000000E+000  0.000000000000000E+000  0.000000000000000E+000        
  0.100700000000000       0.250028000000000       0.000000000000000E+000        
  0.000000000000000E+000   1.00000000000000       0.000000000000000E+000        
  0.000000000000000E+000  0.000000000000000E+000  0.000000000000000E+000        
   8.18200000000000       0.000000000000000E+000  0.000000000000000E+000        
  0.000000000000000E+000  0.000000000000000E+000   1.00000000000000             
  0.000000000000000E+000  0.000000000000000E+000  0.000000000000000E+000        
   24.1860000000000       0.000000000000000E+000  0.000000000000000E+000        
  0.000000000000000E+000  0.000000000000000E+000  0.000000000000000E+000        
   1.00000000000000       0.000000000000000E+000  0.000000000000000E+000        
   71.4940000000000       0.000000000000000E+000  0.000000000000000E+000        
  0.000000000000000E+000  0.000000000000000E+000  0.000000000000000E+000        
  0.000000000000000E+000   1.00000000000000       0.000000000000000E+000        
  3.218000000000000E-002  0.000000000000000E+000  0.000000000000000E+000        
  0.000000000000000E+000  0.000000000000000E+000  0.000000000000000E+000        
  0.000000000000000E+000  0.000000000000000E+000   1.00000000000000             
    6    6                                                                      
   1.84800000000000        1.00000000000000       0.000000000000000E+000        
  0.000000000000000E+000  0.000000000000000E+000  0.000000000000000E+000        
  0.000000000000000E+000                                                        
  0.649000000000000       0.000000000000000E+000   1.00000000000000             
  0.000000000000000E+000  0.000000000000000E+000  0.000000000000000E+000        
  0.000000000000000E+000                                                        
  0.228000000000000       0.000000000000000E+000  0.000000000000000E+000        
   1.00000000000000       0.000000000000000E+000  0.000000000000000E+000        
  0.000000000000000E+000                                                        
   8.65600000000000       0.000000000000000E+000  0.000000000000000E+000        
  0.000000000000000E+000   1.00000000000000       0.000000000000000E+000        
  0.000000000000000E+000                                                        
   33.2130000000000       0.000000000000000E+000  0.000000000000000E+000        
  0.000000000000000E+000  0.000000000000000E+000   1.00000000000000             
  0.000000000000000E+000                                                        
  7.660000000000000E-002  0.000000000000000E+000  0.000000000000000E+000        
  0.000000000000000E+000  0.000000000000000E+000  0.000000000000000E+000        
   1.00000000000000                                                             
    4    4                                                                      
   1.41900000000000        1.00000000000000       0.000000000000000E+000        
  0.000000000000000E+000  0.000000000000000E+000                                
  0.485000000000000       0.000000000000000E+000   1.00000000000000             
  0.000000000000000E+000  0.000000000000000E+000                                
   24.6940000000000       0.000000000000000E+000  0.000000000000000E+000        
   1.00000000000000       0.000000000000000E+000                                
  0.187000000000000       0.000000000000000E+000  0.000000000000000E+000        
  0.000000000000000E+000   1.00000000000000                                     
    2    2                                                                      
   1.01100000000000        1.00000000000000       0.000000000000000E+000        
  0.424000000000000       0.000000000000000E+000   1.00000000000000             
          8.00000000    1    5    1    1    1    1    1                         
O #2   0.000000000000000   0.000000000000000  -0.821076573671658                
   16    9                                                                      
   61420.0000000000       9.000000000000001E-005 -2.000000000000000E-005        
  0.000000000000000E+000  0.000000000000000E+000  0.000000000000000E+000        
  0.000000000000000E+000  0.000000000000000E+000  0.000000000000000E+000        
  0.000000000000000E+000                                                        
   9199.00000000000       6.980000000000001E-004 -1.590000000000000E-004        
  0.000000000000000E+000  0.000000000000000E+000  0.000000000000000E+000        
  0.000000000000000E+000  0.000000000000000E+000  0.000000000000000E+000        
  0.000000000000000E+000                                                        
   2091.00000000000       3.664000000000000E-003 -8.290000000000000E-004        
  0.000000000000000E+000  0.000000000000000E+000  0.000000000000000E+000        
  0.000000000000000E+000  0.000000000000000E+000  0.000000000000000E+000        
  0.000000000000000E+000                                                        
   590.900000000000       1.521800000000000E-002 -3.508000000000000E-003        
  0.000000000000000E+000  0.000000000000000E+000  0.000000000000000E+000        
  0.000000000000000E+000  0.000000000000000E+000  0.000000000000000E+000        
  0.000000000000000E+000                                                        
   192.300000000000       5.242300000000000E-002 -1.215600000000000E-002        
  0.000000000000000E+000  0.000000000000000E+000  0.000000000000000E+000        
  0.000000000000000E+000  0.000000000000000E+000  0.000000000000000E+000        
  0.000000000000000E+000                                                        
   69.3200000000000       0.145921000000000      -3.626100000000000E-002        
  0.000000000000000E+000  0.000000000000000E+000  0.000000000000000E+000        
  0.000000000000000E+000  0.000000000000000E+000  0.000000000000000E+000        
  0.000000000000000E+000                                                        
   26.9700000000000       0.305258000000000      -8.299200000000000E-002        
  0.000000000000000E+000  0.000000000000000E+000  0.000000000000000E+000        
  0.000000000000000E+000  0.000000000000000E+000  0.000000000000000E+000        
  0.000000000000000E+000                                                        
   11.1000000000000       0.398508000000000      -0.152090000000000             
  0.000000000000000E+000  0.000000000000000E+000  0.000000000000000E+000        
  0.000000000000000E+000  0.000000000000000E+000  0.000000000000000E+000        
  0.000000000000000E+000                                                        
   4.68200000000000       0.216980000000000      -0.115331000000000             
  0.000000000000000E+000  0.000000000000000E+000  0.000000000000000E+000        
  0.000000000000000E+000  0.000000000000000E+000  0.000000000000000E+000        
  0.000000000000000E+000                                                        
   1.42800000000000       1.759400000000000E-002  0.288979000000000             
   1.00000000000000       0.000000000000000E+000  0.000000000000000E+000        
  0.000000000000000E+000  0.000000000000000E+000  0.000000000000000E+000        
  0.000000000000000E+000                                                        
  0.554700000000000      -2.502000000000000E-003  0.586128000000000             
  0.000000000000000E+000   1.00000000000000       0.000000000000000E+000        
  0.000000000000000E+000  0.000000000000000E+000  0.000000000000000E+000        
  0.000000000000000E+000                                                        
  0.206700000000000       9.540000000000000E-004  0.277624000000000             
  0.000000000000000E+000  0.000000000000000E+000   1.00000000000000             
  0.000000000000000E+000  0.000000000000000E+000  0.000000000000000E+000        
  0.000000000000000E+000                                                        
   12.9740000000000       0.000000000000000E+000  0.000000000000000E+000        
  0.000000000000000E+000  0.000000000000000E+000  0.000000000000000E+000        
   1.00000000000000       0.000000000000000E+000  0.000000000000000E+000        
  0.000000000000000E+000                                                        
   34.9000000000000       0.000000000000000E+000  0.000000000000000E+000        
  0.000000000000000E+000  0.000000000000000E+000  0.000000000000000E+000        
  0.000000000000000E+000   1.00000000000000       0.000000000000000E+000        
  0.000000000000000E+000                                                        
   93.8810000000000       0.000000000000000E+000  0.000000000000000E+000        
  0.000000000000000E+000  0.000000000000000E+000  0.000000000000000E+000        
  0.000000000000000E+000  0.000000000000000E+000   1.00000000000000             
  0.000000000000000E+000                                                        
  6.959000000000000E-002  0.000000000000000E+000  0.000000000000000E+000        
  0.000000000000000E+000  0.000000000000000E+000  0.000000000000000E+000        
  0.000000000000000E+000  0.000000000000000E+000  0.000000000000000E+000        
   1.00000000000000                                                             
   10    8                                                                      
   63.4200000000000       6.044000000000000E-003  0.000000000000000E+000        
  0.000000000000000E+000  0.000000000000000E+000  0.000000000000000E+000        
  0.000000000000000E+000  0.000000000000000E+000  0.000000000000000E+000        
   14.6600000000000       4.179900000000000E-002  0.000000000000000E+000        
  0.000000000000000E+000  0.000000000000000E+000  0.000000000000000E+000        
  0.000000000000000E+000  0.000000000000000E+000  0.000000000000000E+000        
   4.45900000000000       0.161143000000000       0.000000000000000E+000        
  0.000000000000000E+000  0.000000000000000E+000  0.000000000000000E+000        
  0.000000000000000E+000  0.000000000000000E+000  0.000000000000000E+000        
   1.53100000000000       0.356731000000000        1.00000000000000             
  0.000000000000000E+000  0.000000000000000E+000  0.000000000000000E+000        
  0.000000000000000E+000  0.000000000000000E+000  0.000000000000000E+000        
  0.530200000000000       0.448309000000000       0.000000000000000E+000        
   1.00000000000000       0.000000000000000E+000  0.000000000000000E+000        
  0.000000000000000E+000  0.000000000000000E+000  0.000000000000000E+000        
  0.175000000000000       0.244940000000000       0.000000000000000E+000        
  0.000000000000000E+000   1.00000000000000       0.000000000000000E+000        
  0.000000000000000E+000  0.000000000000000E+000  0.000000000000000E+000        
   14.4750000000000       0.000000000000000E+000  0.000000000000000E+000        
  0.000000000000000E+000  0.000000000000000E+000   1.00000000000000             
  0.000000000000000E+000  0.000000000000000E+000  0.000000000000000E+000        
   42.7300000000000       0.000000000000000E+000  0.000000000000000E+000        
  0.000000000000000E+000  0.000000000000000E+000  0.000000000000000E+000        
   1.00000000000000       0.000000000000000E+000  0.000000000000000E+000        
   126.140000000000       0.000000000000000E+000  0.000000000000000E+000        
  0.000000000000000E+000  0.000000000000000E+000  0.000000000000000E+000        
  0.000000000000000E+000   1.00000000000000       0.000000000000000E+000        
  5.348000000000000E-002  0.000000000000000E+000  0.000000000000000E+000        
  0.000000000000000E+000  0.000000000000000E+000  0.000000000000000E+000        
  0.000000000000000E+000  0.000000000000000E+000   1.00000000000000             
    6    6                                                                      
   3.77500000000000        1.00000000000000       0.000000000000000E+000        
  0.000000000000000E+000  0.000000000000000E+000  0.000000000000000E+000        
  0.000000000000000E+000                                                        
   1.30000000000000       0.000000000000000E+000   1.00000000000000             
  0.000000000000000E+000  0.000000000000000E+000  0.000000000000000E+000        
  0.000000000000000E+000                                                        
  0.444000000000000       0.000000000000000E+000  0.000000000000000E+000        
   1.00000000000000       0.000000000000000E+000  0.000000000000000E+000        
  0.000000000000000E+000                                                        
   14.9270000000000       0.000000000000000E+000  0.000000000000000E+000        
  0.000000000000000E+000   1.00000000000000       0.000000000000000E+000        
  0.000000000000000E+000                                                        
   57.5440000000000       0.000000000000000E+000  0.000000000000000E+000        
  0.000000000000000E+000  0.000000000000000E+000   1.00000000000000             
  0.000000000000000E+000                                                        
  0.154000000000000       0.000000000000000E+000  0.000000000000000E+000        
  0.000000000000000E+000  0.000000000000000E+000  0.000000000000000E+000        
   1.00000000000000                                                             
    4    4                                                                      
   2.66600000000000        1.00000000000000       0.000000000000000E+000        
  0.000000000000000E+000  0.000000000000000E+000                                
  0.859000000000000       0.000000000000000E+000   1.00000000000000             
  0.000000000000000E+000  0.000000000000000E+000                                
   26.4830000000000       0.000000000000000E+000  0.000000000000000E+000        
   1.00000000000000       0.000000000000000E+000                                
  0.324000000000000       0.000000000000000E+000  0.000000000000000E+000        
  0.000000000000000E+000   1.00000000000000                                     
    2    2                                                                      
   1.84600000000000        1.00000000000000       0.000000000000000E+000        
  0.714000000000000       0.000000000000000E+000   1.00000000000000             
FINISH                                                                          
 
********************************************************************************
 ONE- AND TWO-ELECTRON INTEGRALS OVER SYMMETRY-ADAPTED AOS ARE CALCULATED.

  SPHERICAL HARMONICS ARE USED.
  
  INTEGRALS LESS THAN  0.10E-13 ARE NEGLECTED.

  NUCLEAR REPULSION ENERGY :   23.3845880381 A.U.
  @MOLECU-I, ONE ELECTRON INTEGRALS (CPU/WALL):        0.05/       0.05 SECONDS.
  @TWOEL-I,    4616774 INTEGRALS OF SYMMETRY TYPE  I I I I
  @TWOEL-I,   19799069 INTEGRALS OF SYMMETRY TYPE  I J I J
  @TWOEL-I,   10434902 INTEGRALS OF SYMMETRY TYPE  I I J J
  @TWOEL-I,   14643047 INTEGRALS OF SYMMETRY TYPE  I J K L
  @TWOEL-I, TOTAL NUMBER OF 2-E INTEGRALS   49493792.
  @MOLECU-I, TWO ELECTRON INTEGRALS (CPU/WALL):      231.78/      32.23 SECONDS.
 @CHECKOUT-I, Total execution time (CPU/WALL):      231.84/      32.33 seconds.

Running with 14 threads/proc

--executable xvmol finished with status     0 in       32.36 seconds (walltime).
 --invoking executable--
/nfs/workspaces/public/cfour_mpi/bin/xvmol2ja
 @GETMEM-I,  Allocated    3814 MB of main memory.
 @CHECKOUT-I, Total execution time (CPU/WALL):        0.18/       0.08 seconds.
--executable xvmol2ja finished with status     0 in        0.10 seconds (walltime).
 --invoking executable--
/nfs/workspaces/public/cfour_mpi/bin/xvprop
 @GETMEM-I,  Allocated    3814 MB of main memory.
   Property integrals will be calculated.
    --------------------------------------------------------------
                                   Property evaluated at 
    Property type                X             Y             Z
    --------------------------------------------------------------
    Dipole moment               ----          ----          ----  
    Quadrupole moment           ----          ----          ----  
    Octopole moment             ----          ----          ----  
    Relativisitic corr.         ----          ----          ----  
    Second moment            0.0000000     0.0000000     0.0000000
    Electron density         0.0000000     0.0000000     1.2315574
    Electron density         0.0000000     0.0000000    -0.8210766
    Field gradient           0.0000000     0.0000000     1.2315574
    Field gradient           0.0000000     0.0000000    -0.8210766
    Potential                0.0000000     0.0000000     1.2315574
    Potential                0.0000000     0.0000000    -0.8210766
    --------------------------------------------------------------
 @CHECKOUT-I, Total execution time (CPU/WALL):        1.33/       1.38 seconds.
--executable xvprop finished with status     0 in        1.40 seconds (walltime).
 --invoking executable--
/nfs/workspaces/public/cfour_mpi/bin/xvscf
  There are  218 functions in the AO basis.

  There are 4 irreducible representations.

       Irrep        # of functions
         1                 86
         2                 52
         3                 52
         4                 28


  Parameters for SCF calculation: 
        SCF reference function:  RHF  
  Maximum number of iterations:  150
     Full symmetry point group: CXv 
     Computational point group: C2v 
        Initial density matrix: MOREAD                 
     SCF convergence tolerance: 10**(-10)
  DIIS convergence acceleration:  ON
          Latest start for DIIS:   8
                     DIIS order:   6

  Memory information:    2523578 words required.
  Fock matrices are constructed from AO integral file.
 @GETMEM-I,  Allocated      19 MB of main memory.
  Initialization and symmetry analysis required      0.002 seconds.

  Adding electric field perturbation to one-electron Hamiltonian.
  Field direction     : Z
  Field strength      :  0.0002000 a.u.

  @INITGES-I, Occupancies from core Hamiltonian:

          Alpha population by irrep:   5    1    1    0
           Beta population by irrep:   5    1    1    0


 total no. of electrons in initial guess :  0.000000000000000E+000
  --------------------------------------------------------------------
  Iteration         Total Energy            Largest Density Difference
  --------------------------------------------------------------------
       0            23.384423891726716              0.0000000000D+00
   current occupation vector 
     5  1  1  0
     5  1  1  0
       1           -91.445336797749889              0.1900584965D+02
   current occupation vector 
     5  1  1  0
     5  1  1  0
       2           -95.370820877019966              0.4514302101D+02
   current occupation vector 
     5  1  1  0
     5  1  1  0
       3          -103.234387424239188              0.4512381672D+02
   current occupation vector 
     5  1  1  0
     5  1  1  0
       4          -100.538305424408264              0.8432574851D+01
   current occupation vector 
     5  1  1  0
     5  1  1  0
       5          -104.072173361358196              0.8419557618D+01
   current occupation vector 
     5  1  1  0
     5  1  1  0
       6          -101.238310299878421              0.5766632000D+01
   current occupation vector 
     5  1  1  0
     5  1  1  0
       7          -103.599032426847955              0.5445731790D+01
   current occupation vector 
     5  1  1  0
     5  1  1  0
       8          -100.782744940995244              0.5421523400D+01
   current occupation vector 
     5  1  1  0
     5  1  1  0
       9          -111.103923114939377              0.3986377651D+01
   current occupation vector 
     5  1  1  0
     5  1  1  0
      10          -112.427403176909635              0.9075141941D+00
   current occupation vector 
     5  1  1  0
     5  1  1  0
      11          -112.782348829807958              0.4579103722D+00
   current occupation vector 
     5  1  1  0
     5  1  1  0
      12          -112.790065539334663              0.8254010033D-01
   current occupation vector 
     5  1  1  0
     5  1  1  0
      13          -112.790327989081462              0.1937688190D-01
   current occupation vector 
     5  1  1  0
     5  1  1  0
      14          -112.790373136551395              0.1077439239D-01
   current occupation vector 
     5  1  1  0
     5  1  1  0
      15          -112.790373932284766              0.1752455860D-02
   current occupation vector 
     5  1  1  0
     5  1  1  0
      16          -112.790373942874126              0.1258321228D-03
   current occupation vector 
     5  1  1  0
     5  1  1  0
      17          -112.790373943108406              0.2332155405D-04
   current occupation vector 
     5  1  1  0
     5  1  1  0
      18          -112.790373943116990              0.2931323287D-05
   current occupation vector 
     5  1  1  0
     5  1  1  0
      19          -112.790373943117501              0.7942304348D-06
   current occupation vector 
     5  1  1  0
     5  1  1  0
      20          -112.790373943117672              0.1002069199D-06
   current occupation vector 
     5  1  1  0
     5  1  1  0
      21          -112.790373943117217              0.9413945623D-08
   current occupation vector 
     5  1  1  0
     5  1  1  0
      22          -112.790373943118325              0.7618163878D-09
   current occupation vector 
     5  1  1  0
     5  1  1  0
      23          -112.790373943117643              0.1524671500D-09
   current occupation vector 
     5  1  1  0
     5  1  1  0
      24          -112.790373943117871              0.1839897124D-09
   current occupation vector 
     5  1  1  0
     5  1  1  0
      25          -112.790373943117473              0.2444282554D-09
   current occupation vector 
     5  1  1  0
     5  1  1  0

  SCF has converged.

 Density matrix saved to file den.dat
 total electron number:   13.9999999999998     
     E(SCF)=      -112.790373943117302              0.9557940377D-10

  Eigenvector printing suppressed.

 @PUTMOS-I, Writing converged MOs to NEWMOS. 
 @PUTMOS-I, Symmetry   1 Full Blocks 21 Partial Blocksize   2
 @PUTMOS-I, Symmetry   2 Full Blocks 13 Partial Blocksize   0
 @PUTMOS-I, Symmetry   3 Full Blocks 13 Partial Blocksize   0
 @PUTMOS-I, Symmetry   4 Full Blocks  7 Partial Blocksize   0
 @PUTFOCK-I, Writing converged Fock matrix to NEWFOCK. 
 @PUTFOCK-I, Symmetry   1 Full Blocks 21 Partial Blocksize   2
 @PUTFOCK-I, Symmetry   2 Full Blocks 13 Partial Blocksize   0
 @PUTFOCK-I, Symmetry   3 Full Blocks 13 Partial Blocksize   0
 @PUTFOCK-I, Symmetry   4 Full Blocks  7 Partial Blocksize   0


 
  ORBITAL EIGENVALUES (ALPHA)  (1H = 27.2113834 eV)

       MO #        E(hartree)               E(eV)           FULLSYM    COMPSYM
       ----   --------------------   --------------------   -------   ---------
    1     1         -20.6631467055        -562.2728072536     SG+        A1 (1)
    2     2         -11.3409885483        -308.6039875241     SG+        A1 (1)
    3     3          -1.5512357933         -42.2112719147     SG+        A1 (1)
    4     4          -0.8084155755         -21.9981061723     SG+        A1 (1)
    5   139          -0.6593401100         -17.9415565236      PI        B2 (3)
    6    87          -0.6593401100         -17.9415565236      PI        B1 (2)
    7     5          -0.5494242305         -14.9505933843     SG+        A1 (1)
  +++++++++++++++++++++++++++++++++++++++++++++++++++++++++++++++++++++++++++++
    8     6           0.0588793095           1.6021874655     SG+        A1 (1)
    9    88           0.0642904261           1.7494314333      PI        B1 (2)
   10   140           0.0642904261           1.7494314333      PI        B2 (3)
   11     7           0.0764339828           2.0798744103     SG+        A1 (1)
   12   141           0.1492283035           4.0607085800      PI        B2 (3)
   13    89           0.1492283035           4.0607085800      PI        B1 (2)
   14     8           0.1558849598           4.2418454084     SG+        A1 (1)
   15   142           0.1703021816           4.6341579584      PI        B2 (3)
   16    90           0.1703021816           4.6341579584      PI        B1 (2)
   17     9           0.2275980018           6.1932564891     SG+        A1 (1)
   18    10           0.2282014814           6.2096780038      DE        A1 (1)
   19   191           0.2282014814           6.2096780038      DE        A2 (4)
   20    11           0.3020089684           8.2180818297     SG+        A1 (1)
   21   143           0.3259475613           8.8694840581      PI        B2 (3)
   22    91           0.3259475613           8.8694840581      PI        B1 (2)
   23    12           0.3937666874          10.7149363008     SG+        A1 (1)
   24    92           0.3968913768          10.7999634213      PI        B1 (2)
   25   144           0.3968913768          10.7999634213      PI        B2 (3)
   26    13           0.5079170639          13.8211259610     SG+        A1 (1)
   27   192           0.5315579953          14.4644284094      DE        A2 (4)
   28    14           0.5315579953          14.4644284094      DE        A1 (1)
   29    93           0.6214621967          16.9108461042      PI        B1 (2)
   30   145           0.6214621967          16.9108461042      PI        B2 (3)
   31    15           0.6543601141          17.8060439458     SG+        A1 (1)
   32    94           0.7497262733          20.4010890689      PH        B1 (2)
   33   146           0.7497262733          20.4010890689      PH        B2 (3)
   34    16           0.7701310016          20.9563299522      DE        A1 (1)
   35   193           0.7701310016          20.9563299522      DE        A2 (4)
   36    17           0.7815145511          21.2660920819     SG+        A1 (1)
   37    95           0.8291783584          22.5630902180      PI        B1 (2)
   38   147           0.8291783584          22.5630902180      PI        B2 (3)
   39    18           0.8743637025          23.7926459393     SG+        A1 (1)
   40    96           0.8780326584          23.8924833046      PI        B1 (2)
   41   148           0.8780326584          23.8924833047      PI        B2 (3)
   42   194           0.8942759161          24.3344848179      DE        A2 (4)
   43    19           0.8942759161          24.3344848179      DE        A1 (1)
   44    20           0.9297476013          25.2997184452     SG+        A1 (1)
   45    97           1.0873856927          29.5892689878      PI        B1 (2)
   46   149           1.0873856927          29.5892689878      PI        B2 (3)
   47    21           1.2319466298          33.5229720705     SG+        A1 (1)
   48    98           1.4505069962          39.4703019977      PH        B1 (2)
   49   150           1.4505069962          39.4703019977      PH        B2 (3)
   50    22           1.4939528540          40.6525238908     SG+        A1 (1)
   51   195           1.5112201138          41.1223899191      DE        A2 (4)
   52    23           1.5112201138          41.1223899191      DE        A1 (1)
   53    99           1.5467047281          42.0879753637      PI        B1 (2)
   54   151           1.5467047281          42.0879753637      PI        B2 (3)
   55    24           1.6641898088          45.2849069389     SG+        A1 (1)
   56    25           1.7595886494          47.8808413664     SG+        A1 (1)
   57   196           1.7732651047          48.2529966335      DE        A2 (4)
   58    26           1.7732651047          48.2529966335      DE        A1 (1)
   59   100           1.8376167653          50.0040943424      PI        B1 (2)
   60   152           1.8376167653          50.0040943425      PI        B2 (3)
   61   101           1.9532062530          53.1494442094      PI        B1 (2)
   62   153           1.9532062530          53.1494442095      PI        B2 (3)
   63   197           2.1085851356          57.3775185559      PI        A2 (4)
   64    27           2.1085851356          57.3775185559      PI        A1 (1)
   65    28           2.1618276257          58.8263203686     SG+        A1 (1)
   66    29           2.2053230413          60.0098907968      DE        A1 (1)
   67   198           2.2053230413          60.0098907968      DE        A2 (4)
   68   102           2.2555578147          61.3768484780      PH        B1 (2)
   69   154           2.2555578147          61.3768484780      PH        B2 (3)
   70    30           2.3205561707          63.1455436621     SG+        A1 (1)
   71   103           2.3337302747          63.5040292576      PI        B1 (2)
   72   155           2.3337302747          63.5040292576      PI        B2 (3)
   73   199           2.3711540348          64.5223815414      DE        A2 (4)
   74    31           2.3711540348          64.5223815414      DE        A1 (1)
   75   156           2.3791889110          64.7410216372      PH        B2 (3)
   76   104           2.3791889110          64.7410216372      PH        B1 (2)
   77    32           2.4996371614          68.0185851596     SG+        A1 (1)
   78   157           2.6049560122          70.8844567868      PI        B2 (3)
   79   105           2.6049560122          70.8844567868      PI        B1 (2)
   80   158           2.8747796436          78.2267310717      PI        B2 (3)
   81   106           2.8747796436          78.2267310717      PI        B1 (2)
   82    33           3.0005703509          81.6496702379     SG+        A1 (1)
   83   200           3.0444788485          82.8444811997      DE        A2 (4)
   84    34           3.0444788485          82.8444811999      DE        A1 (1)
   85    35           3.4582279436          94.1031664580     SG+        A1 (1)
   86    36           3.7322630889         101.5600418626      PI        A1 (1)
   87   201           3.7322630889         101.5600418627      PI        A2 (4)
   88   107           3.7601197841         102.3180610758      PI        B1 (2)
   89   159           3.7601197841         102.3180610759      PI        B2 (3)
   90    37           3.9617916608         107.8058318331     SG+        A1 (1)
   91   160           4.0785309776         110.9824701409      PH        B2 (3)
   92   108           4.0785309776         110.9824701409      PH        B1 (2)
   93   202           4.1752946785         113.6155443041      DE        A2 (4)
   94    38           4.1752946785         113.6155443041      DE        A1 (1)
   95   161           4.2108946377         114.5842684440      PI        B2 (3)
   96   109           4.2108946377         114.5842684440      PI        B1 (2)
   97    39           4.2854593981         116.6132787277     SG+        A1 (1)
   98   162           4.3314868550         117.8657495024      PH        B2 (3)
   99   110           4.3314868550         117.8657495024      PH        B1 (2)
  100   203           4.4003911233         119.7407299650      DE        A2 (4)
  101    40           4.4003911233         119.7407299650      DE        A1 (1)
  102    41           4.6037615765         125.2747213401     SG+        A1 (1)
  103   111           4.7686953242         129.7627967838      PI        B1 (2)
  104   163           4.7686953242         129.7627967838      PI        B2 (3)
  105    42           4.9734563056         135.3346263540     SG+        A1 (1)
  106    43           5.1742280826         140.7979041540      DE        A1 (1)
  107   204           5.1742280826         140.7979041541      DE        A2 (4)
  108   164           5.1922138462         141.2873216648      PI        B2 (3)
  109   112           5.1922138462         141.2873216649      PI        B1 (2)
  110   165           5.8644228299         159.5790580431      PI        B2 (3)
  111   113           5.8644228299         159.5790580433      PI        B1 (2)
  112   205           5.9076309328         160.7548102988      PI        A2 (4)
  113    44           5.9076309328         160.7548102988      PI        A1 (1)
  114    45           6.0026593993         163.3406663352     SG+        A1 (1)
  115   166           6.1800779497         168.1684705302      PH        B2 (3)
  116   114           6.1800779497         168.1684705302      PH        B1 (2)
  117    46           6.2236045870         169.3528905479     SG+        A1 (1)
  118   206           6.3173662520         171.9042751610      DE        A2 (4)
  119    47           6.3173662520         171.9042751610      DE        A1 (1)
  120   167           6.3413051985         172.5556870125      PI        B2 (3)
  121   115           6.3413051985         172.5556870125      PI        B1 (2)
  122   116           6.4528911172         175.5920942299      PH        B1 (2)
  123   168           6.4528911172         175.5920942299      PH        B2 (3)
  124   207           6.6176885279         180.0764597553      DE        A2 (4)
  125    48           6.6176885279         180.0764597555      DE        A1 (1)
  126    49           7.1158189991         193.6312789889     SG+        A1 (1)
  127    50           7.5200714377         204.6315470865      DE        A1 (1)
  128   208           7.5200714377         204.6315470866      DE        A2 (4)
  129   117           7.5998378303         206.8021009775      PI        B1 (2)
  130   169           7.5998378303         206.8021009775      PI        B2 (3)
  131    51           7.8966942516         214.8799748742     SG+        A1 (1)
  132    52           8.3997457218         228.5687012991     SG+        A1 (1)
  133   170           8.6206512716         234.5798469105      PI        B2 (3)
  134   118           8.6206512717         234.5798469106      PI        B1 (2)
  135   171          10.1230205173         275.4613924617      PI        B2 (3)
  136   119          10.1230205173         275.4613924617      PI        B1 (2)
  137    53          10.3487329320         281.6033395173     SG+        A1 (1)
  138   209          10.6007230690         288.4603397483      PI        A2 (4)
  139    54          10.6007230690         288.4603397483      PI        A1 (1)
  140   172          10.9147621221         297.0057768237      PH        B2 (3)
  141   120          10.9147621221         297.0057768237      PH        B1 (2)
  142   210          11.1794959556         304.2095506676      DE        A2 (4)
  143    55          11.1794959556         304.2095506677      DE        A1 (1)
  144    56          11.2121278581         305.0975098765     SG+        A1 (1)
  145   173          11.3941433871         310.0504042216      PI        B2 (3)
  146   121          11.3941433871         310.0504042216      PI        B1 (2)
  147   174          11.8561679244         322.6227310444      PH        B2 (3)
  148   122          11.8561679244         322.6227310444      PH        B1 (2)
  149    57          11.8660657724         322.8920651826     SG+        A1 (1)
  150    58          12.3368506134         335.7027719900      DE        A1 (1)
  151   211          12.3368506134         335.7027719900      DE        A2 (4)
  152   175          12.7373036540         346.5996532104      PI        B2 (3)
  153   123          12.7373036540         346.5996532104      PI        B1 (2)
  154   212          12.9148703933         351.4314898343      DE        A2 (4)
  155    59          12.9148703933         351.4314898343      DE        A1 (1)
  156    60          13.5029089639         367.4328328326     SG+        A1 (1)
  157   176          14.4257363267         392.5442420125      PI        B2 (3)
  158   124          14.4257363267         392.5442420125      PI        B1 (2)
  159    61          15.7790415250         429.3695486210     SG+        A1 (1)
  160    62          18.1250701856         493.2082339721     SG+        A1 (1)
  161   177          19.4946526260         530.4764668557      PI        B2 (3)
  162   125          19.4946526260         530.4764668558      PI        B1 (2)
  163    63          20.8442512652         567.2009128622     SG+        A1 (1)
  164    64          26.5861300060         723.4453767159      DE        A1 (1)
  165   213          26.5861300060         723.4453767159      DE        A2 (4)
  166   126          27.1480949645         738.7372206589      PI        B1 (2)
  167   178          27.1480949645         738.7372206589      PI        B2 (3)
  168    65          28.4243847851         773.4668322953     SG+        A1 (1)
  169   127          33.8214291437         920.3278755654      PI        B1 (2)
  170   179          33.8214291437         920.3278755659      PI        B2 (3)
  171    66          35.1680217893         956.9705243274     SG+        A1 (1)
  172    67          37.0555274684        1008.3321650321     SG+        A1 (1)
  173   214          47.1378148149        1282.6851515654      DE        A2 (4)
  174    68          47.1378148149        1282.6851515654      DE        A1 (1)
  175   128          47.8487457028        1302.0305645279      PI        B1 (2)
  176   180          47.8487457028        1302.0305645279      PI        B2 (3)
  177    69          48.6816669669        1324.6955043867     SG+        A1 (1)
  178    70          64.3335598236        1750.6051618475     SG+        A1 (1)
  179   129          66.9288792289        1821.2273932305      PI        B1 (2)
  180   181          66.9288792289        1821.2273932307      PI        B2 (3)
  181    71          67.9473650949        1848.9418026166     SG+        A1 (1)
  182   182          98.6984427608        2685.7211669459      PH        B2 (3)
  183   130          98.6984427608        2685.7211669460      PH        B1 (2)
  184   215          98.7257430705        2686.4640461404      DE        A2 (4)
  185    72          98.7257430705        2686.4640461404      DE        A1 (1)
  186   131          98.8004458039        2688.4968108608      PI        B1 (2)
  187   183          98.8004458039        2688.4968108608      PI        B2 (3)
  188    73          98.8133142385        2688.8469787682     SG+        A1 (1)
  189   132         103.2867629142        2810.5757058021      PH        B1 (2)
  190   184         103.2867629142        2810.5757058021      PH        B2 (3)
  191   216         103.3434387182        2812.1179328346      DE        A2 (4)
  192    74         103.3434387183        2812.1179328374      DE        A1 (1)
  193   133         103.3739294403        2812.9476275650      PI        B1 (2)
  194   185         103.3739294403        2812.9476275650      PI        B2 (3)
  195    75         103.4484889367        2814.9764946083     SG+        A1 (1)
  196    76         115.2270305762        3135.4869070527      DE        A1 (1)
  197   217         115.2270305762        3135.4869070528      DE        A2 (4)
  198   134         115.5001480741        3142.9188120018      PI        B1 (2)
  199   186         115.5001480741        3142.9188120018      PI        B2 (3)
  200    77         116.1230774275        3159.8695814683     SG+        A1 (1)
  201   135         117.0663297221        3185.5367813002      PI        B1 (2)
  202   187         117.0663297222        3185.5367813012      PI        B2 (3)
  203    78         118.2929487905        3218.9147830551     SG+        A1 (1)
  204    79         123.0478307994        3348.3017004211     SG+        A1 (1)
  205   218         198.5905849024        5403.9245454103      DE        A2 (4)
  206    80         198.5905849024        5403.9245454104      DE        A1 (1)
  207   188         198.9780890651        5414.4690697507      PI        B2 (3)
  208   136         198.9780890651        5414.4690697507      PI        B1 (2)
  209    81         199.4038964472        5426.0558776787     SG+        A1 (1)
  210    82         216.8035848679        5899.5254703343     SG+        A1 (1)
  211   137         225.3342554595        6131.6568184607      PI        B1 (2)
  212   189         225.3342554595        6131.6568184610      PI        B2 (3)
  213    83         226.1619912264        6154.1806537693     SG+        A1 (1)
  214   138         395.5220665915       10762.7025971816      PI        B1 (2)
  215   190         395.5220665916       10762.7025971830      PI        B2 (3)
  216    84         396.4999456812       10789.3120400113     SG+        A1 (1)
  217    85         509.5440003950       13865.3971539193     SG+        A1 (1)
  218    86         895.6400638642       24371.6051662079     SG+        A1 (1)


  VSCF finished.

 @CHECKOUT-I, Total execution time (CPU/WALL):       48.13/      10.35 seconds.
--executable xvscf finished with status     0 in       10.41 seconds (walltime).
 --invoking executable--
/nfs/workspaces/public/cfour_mpi/bin/xvtran
 @GETMEM-I,  Allocated    3814 MB of main memory.
  Full RHF integral transformation
  Transformation of IIII integrals :
  1 pass through the AO integral file was required.
     4616774 AO integrals were read.
     8839827 MO integrals were written to HF2.
  Transformation of IIJJ integrals :
  1 pass through the AO integral file was required.
    10434902 AO integrals were read.
    14652239 MO integrals were written to HF2.
  Transformation of IJIJ integrals :
  1 pass through the AO integral file was required.
    19799069 AO integrals were read.
    27594696 MO integrals were written to HF2.
  Transformation of IJKL integrals :
  1 pass through the AO integral file was required.
    14643047 AO integrals were read.
    18646820 MO integrals were written to HF2.
  Summary of active molecular orbitals: 
------------------------------------------------------------------------
 
  Index      Eigenvalue    Symmetry    Index      Eigenvalue    Symmetry
------------------------------------------------------------------------
     1       -20.6631467        1       110         4.2108946        2
     2       -11.3409885        1       111         4.3314869        2
     3        -1.5512358        1       112         4.7686953        2
     4        -0.8084156        1       113         5.1922138        2
     5        -0.5494242        1       114         5.8644228        2
     6        -0.6593401        2       115         6.1800779        2
     7        -0.6593401        3       116         6.3413052        2
     8         0.0588793        1       117         6.4528911        2
     9         0.0764340        1       118         7.5998378        2
    10         0.1558850        1       119         8.6206513        2
    11         0.2275980        1       120        10.1230205        2
    12         0.2282015        1       121        10.9147621        2
    13         0.3020090        1       122        11.3941434        2
    14         0.3937667        1       123        11.8561679        2
    15         0.5079171        1       124        12.7373037        2
    16         0.5315580        1       125        14.4257363        2
    17         0.6543601        1       126        19.4946526        2
    18         0.7701310        1       127        27.1480950        2
    19         0.7815146        1       128        33.8214291        2
    20         0.8743637        1       129        47.8487457        2
    21         0.8942759        1       130        66.9288792        2
    22         0.9297476        1       131        98.6984428        2
    23         1.2319466        1       132        98.8004458        2
    24         1.4939529        1       133       103.2867629        2
    25         1.5112201        1       134       103.3739294        2
    26         1.6641898        1       135       115.5001481        2
    27         1.7595886        1       136       117.0663297        2
    28         1.7732651        1       137       198.9780891        2
    29         2.1085851        1       138       225.3342555        2
    30         2.1618276        1       139       395.5220666        2
    31         2.2053230        1       140         0.0642904        3
    32         2.3205562        1       141         0.1492283        3
    33         2.3711540        1       142         0.1703022        3
    34         2.4996372        1       143         0.3259476        3
    35         3.0005704        1       144         0.3968914        3
    36         3.0444788        1       145         0.6214622        3
    37         3.4582279        1       146         0.7497263        3
    38         3.7322631        1       147         0.8291784        3
    39         3.9617917        1       148         0.8780327        3
    40         4.1752947        1       149         1.0873857        3
    41         4.2854594        1       150         1.4505070        3
    42         4.4003911        1       151         1.5467047        3
    43         4.6037616        1       152         1.8376168        3
    44         4.9734563        1       153         1.9532063        3
    45         5.1742281        1       154         2.2555578        3
    46         5.9076309        1       155         2.3337303        3
    47         6.0026594        1       156         2.3791889        3
    48         6.2236046        1       157         2.6049560        3
    49         6.3173663        1       158         2.8747796        3
    50         6.6176885        1       159         3.7601198        3
    51         7.1158190        1       160         4.0785310        3
    52         7.5200714        1       161         4.2108946        3
    53         7.8966943        1       162         4.3314869        3
    54         8.3997457        1       163         4.7686953        3
    55        10.3487329        1       164         5.1922138        3
    56        10.6007231        1       165         5.8644228        3
    57        11.1794960        1       166         6.1800779        3
    58        11.2121279        1       167         6.3413052        3
    59        11.8660658        1       168         6.4528911        3
    60        12.3368506        1       169         7.5998378        3
    61        12.9148704        1       170         8.6206513        3
    62        13.5029090        1       171        10.1230205        3
    63        15.7790415        1       172        10.9147621        3
    64        18.1250702        1       173        11.3941434        3
    65        20.8442513        1       174        11.8561679        3
    66        26.5861300        1       175        12.7373037        3
    67        28.4243848        1       176        14.4257363        3
    68        35.1680218        1       177        19.4946526        3
    69        37.0555275        1       178        27.1480950        3
    70        47.1378148        1       179        33.8214291        3
    71        48.6816670        1       180        47.8487457        3
    72        64.3335598        1       181        66.9288792        3
    73        67.9473651        1       182        98.6984428        3
    74        98.7257431        1       183        98.8004458        3
    75        98.8133142        1       184       103.2867629        3
    76       103.3434387        1       185       103.3739294        3
    77       103.4484889        1       186       115.5001481        3
    78       115.2270306        1       187       117.0663297        3
    79       116.1230774        1       188       198.9780891        3
    80       118.2929488        1       189       225.3342555        3
    81       123.0478308        1       190       395.5220666        3
    82       198.5905849        1       191         0.2282015        4
    83       199.4038964        1       192         0.5315580        4
    84       216.8035849        1       193         0.7701310        4
    85       226.1619912        1       194         0.8942759        4
    86       396.4999457        1       195         1.5112201        4
    87       509.5440004        1       196         1.7732651        4
    88       895.6400639        1       197         2.1085851        4
    89         0.0642904        2       198         2.2053230        4
    90         0.1492283        2       199         2.3711540        4
    91         0.1703022        2       200         3.0444788        4
    92         0.3259476        2       201         3.7322631        4
    93         0.3968914        2       202         4.1752947        4
    94         0.6214622        2       203         4.4003911        4
    95         0.7497263        2       204         5.1742281        4
    96         0.8291784        2       205         5.9076309        4
    97         0.8780327        2       206         6.3173663        4
    98         1.0873857        2       207         6.6176885        4
    99         1.4505070        2       208         7.5200714        4
   100         1.5467047        2       209        10.6007231        4
   101         1.8376168        2       210        11.1794960        4
   102         1.9532063        2       211        12.3368506        4
   103         2.2555578        2       212        12.9148704        4
   104         2.3337303        2       213        26.5861300        4
   105         2.3791889        2       214        47.1378148        4
   106         2.6049560        2       215        98.7257431        4
   107         2.8747796        2       216       103.3434387        4
   108         3.7601198        2       217       115.2270306        4
   109         4.0785310        2       218       198.5905849        4
------------------------------------------------------------------------
  -20.6631467054934       -11.3409885483478       -1.55123579327908     
 -0.808415575530088      -0.549424230459432      -0.659340109976179     
 -0.659340109976202       5.887930951417176E-002  7.643398278291708E-002
  0.155884959836058       0.227598001838292       0.228201481436374     
  0.302008968410706       0.393766687394309       0.507917063892808     
  0.531557995298422       0.654360114075921       0.770131001578677     
  0.781514551073519       0.874363702484126       0.894275916083116     
  0.929747601336618        1.23194662975010        1.49395285396682     
   1.51122011382608        1.66418980884786        1.75958864944875     
   1.77326510468791        2.10858513558442        2.16182762573371     
   2.20532304126803        2.32055617069801        2.37115403480057     
   2.49963716139578        3.00057035093201        3.04447884850478     
   3.45822794360468        3.73226308893393        3.96179166080718     
   4.17529467848116        4.28545939813145        4.40039112325948     
   4.60376157649042        4.97345630556815        5.17422808257672     
   5.90763093282666        6.00265939934612        6.22360458703789     
   6.31736625198606        6.61768852793635        7.11581899907724     
   7.52007143769628        7.89669425164865        8.39974572182476     
   10.3487329320168        10.6007230690207        11.1794959556401     
   11.2121278580961        11.8660657724093        12.3368506134096     
   12.9148703933333        13.5029089639226        15.7790415249905     
   18.1250701855926        20.8442512651594        26.5861300060148     
   28.4243847850557        35.1680217892712        37.0555274684072     
   47.1378148148630        48.6816669668739        64.3335598236262     
   67.9473650948829        98.7257430704682        98.8133142384876     
[...]
 Convergence information after     8 iterations: 
 Largest element of residual vector : -0.18993887E-04.
 Largest element of DIIS residual   :  0.15502890E-04.
 Convergence information after     9 iterations: 
 Largest element of residual vector :  0.66956435E-05.
 Largest element of DIIS residual   :  0.43273776E-05.
 Convergence information after    10 iterations: 
 Largest element of residual vector :  0.32400068E-05.
 Largest element of DIIS residual   :  0.21437075E-05.
 Convergence information after    11 iterations: 
 Largest element of residual vector :  0.11375342E-05.
 Largest element of DIIS residual   :  0.58547459E-06.
 Convergence information after    12 iterations: 
 Largest element of residual vector :  0.46620317E-06.
 Largest element of DIIS residual   :  0.27491049E-06.
 Convergence information after    13 iterations: 
 Largest element of residual vector :  0.19896387E-06.
 Largest element of DIIS residual   :  0.16548506E-06.
 Convergence information after    14 iterations: 
 Largest element of residual vector :  0.12001111E-06.
 Largest element of DIIS residual   :  0.75381925E-07.
 Perturbed amplitude equations converged in    14 iterations.
  Dominant contributions to perturbed wavefunction:
    7    7  142   37   0.2125268112 ABAB
    7    7   37  142   0.2125268112 ABAB
    7    7  142   27   0.2092326557 ABAB
    7    7   27  142   0.2092326557 ABAB
    7    7  142   55   0.1639749442 ABAB
    7    7   55  142   0.1639749442 ABAB
    7    7  141   37   0.1524226910 ABAB
    7    7   37  141   0.1524226910 ABAB
    7    7  141   27   0.1491124641 ABAB
    7    7   27  141   0.1491124641 ABAB
    7    7  142   63   0.1458163564 ABAB
    7    7   63  142   0.1458163564 ABAB
    7    6   37   91   0.1434923531 ABAB
    6    7   91   37   0.1434923531 ABAB
    7    7  141   55   0.1414868300 ABAB
    7    7   55  141   0.1414868300 ABAB
    7    6   27   91   0.1407834612 ABAB
    6    7   91   27   0.1407834612 ABAB
    7    7  142   47   0.1306135378 ABAB
    7    7   47  142   0.1306135378 ABAB
  norm of converged amps    2.56742017525620     
 Starting iterative solution of the perturbed Lambda equations.
 The DIIS procedure is used to accelerate convergence.
 Convergence criterion is 10**(-7).
 Maximum number of iterations is 100.
 Convergence information after     1 iterations: 
 Largest element of residual vector : -0.67140753E-01.
 Largest element of DIIS residual   : -0.67140753E-01.
 Convergence information after     2 iterations: 
 Largest element of residual vector :  0.70239044E-02.
 Largest element of DIIS residual   :  0.53918751E-02.
 Convergence information after     3 iterations: 
 Largest element of residual vector : -0.33559705E-02.
 Largest element of DIIS residual   : -0.28997269E-02.
 Convergence information after     4 iterations: 
 Largest element of residual vector : -0.20472851E-02.
 Largest element of DIIS residual   : -0.15940788E-02.
 Convergence information after     5 iterations: 
 Largest element of residual vector : -0.11644531E-02.
 Largest element of DIIS residual   : -0.54217319E-03.
 Convergence information after     6 iterations: 
 Largest element of residual vector : -0.37548714E-03.
 Largest element of DIIS residual   :  0.97407603E-04.
 Convergence information after     7 iterations: 
 Largest element of residual vector : -0.65825795E-04.
 Largest element of DIIS residual   : -0.39504305E-04.
 Convergence information after     8 iterations: 
 Largest element of residual vector : -0.15437096E-04.
 Largest element of DIIS residual   :  0.12962720E-04.
 Convergence information after     9 iterations: 
 Largest element of residual vector :  0.56498848E-05.
 Largest element of DIIS residual   :  0.36758587E-05.
 Convergence information after    10 iterations: 
 Largest element of residual vector :  0.26881493E-05.
 Largest element of DIIS residual   :  0.18240973E-05.
 Convergence information after    11 iterations: 
 Largest element of residual vector :  0.93304633E-06.
 Largest element of DIIS residual   :  0.49481202E-06.
 Convergence information after    12 iterations: 
 Largest element of residual vector :  0.41872111E-06.
 Largest element of DIIS residual   :  0.27648416E-06.
 Convergence information after    13 iterations: 
 Largest element of residual vector :  0.19954331E-06.
 Largest element of DIIS residual   :  0.16951645E-06.
 Convergence information after    14 iterations: 
 Largest element of residual vector :  0.12306801E-06.
 Largest element of DIIS residual   :  0.77048075E-07.
 Perturbed Lambda equations converged in    14 iterations.
  Dominant contributions to perturbed wavefunction:
    7    7  142   37   0.2033943169 ABAB
    7    7   37  142   0.2033943169 ABAB
    7    7  142   27   0.1994621620 ABAB
    7    7   27  142   0.1994621620 ABAB
    7    7  142   55   0.1549240417 ABAB
    7    7   55  142   0.1549240417 ABAB
    7    7  141   37   0.1446183909 ABAB
    7    7   37  141   0.1446183909 ABAB
    7    7  141   27   0.1408161936 ABAB
    7    7   27  141   0.1408161936 ABAB
    7    7  142   63   0.1391911077 ABAB
    7    7   63  142   0.1391911077 ABAB
    7    6   37   91   0.1357808686 ABAB
    6    7   91   37   0.1357808686 ABAB
    7    7  141   55   0.1330112262 ABAB
    7    7   55  141   0.1330112262 ABAB
    7    6   27   91   0.1325167204 ABAB
    6    7   91   27   0.1325167204 ABAB
    7    7  142   47   0.1246243485 ABAB
    7    7   47  142   0.1246243485 ABAB
        The DBOC first-order density matrix is being calculated 
             (Symmetry block 3, perturbation   2)
 term   7.77274395642464     
 final tnorm  0.892609642062907     
  norm contr. I: |<0|L dT/dx|0>|^2   0.000000000000000E+000
  norm contr. II: <0|[nabla(1+L)e-T][nabla e^T]|0>   7.77274395642464     
  total norm contribution   7.77274395642464     
 oo  1.125432730545846E-002
 vv  -51.8637087856595     
 vo  3.428542774047304E-002
  Correlated perturbed 1-el contribution to DBOC  -51.8181690306136       cm**-1
  SUM_I |dc_I/dx|^2 contribution to DBOC   26.0029280042502       cm**-1
 
 
  The total diagonal Born-Oppenheimer correction (DBOC) is:      0.0038740151 a.u.
  The total diagonal Born-Oppenheimer correction (DBOC) is:        850.248042 cm-1
 
 Total CC energy including DBOC  -113.278720779444     
 First-order density matrix is being calculated  (Symmetry block 3, perturbation   2)
 Calculation of the contributions of <pq||rs> to dI(i,j)/dx required   3.4 seconds.
 Calculation of the contributions of <pq||rs> to dI(a,b)/dx required  16.2 seconds.
 Calculation of the contributions of <pq||rs> to dI(i,a)/dx required  10.0 seconds.
 First-order Z-vector equations are solved for 1 perturbation.
 Convergence reached after  18 iterations.
        U*G(pq,rs) contribution is being calculated
             (Symmetry block 3, perturbation   2)

 CCSD contribution to force constants 

        0.0000000000        0.0000000000        0.0000000000
        0.0000000000        0.0000000000        0.0000000000
        0.0000000000        0.0000000000        0.0000000000
        0.0000000000        0.0000000000        0.0000000000
        0.0000000000        0.0000000000        0.0000000000
        0.0000000000        0.0000000000        0.0000000000
        0.0000000000        0.0000000000        0.0000000000
        0.0000000000        0.0000000000        0.0000000000
        0.0000000000        0.0000000000        0.0000000000
        0.0000000000        0.0000000000        0.0000000000
        0.0000000000        0.0000000000        0.0000000000
        0.0000000000       -4.4047542723        4.4047542723

 CCSD contribution to dipole derivatives 

        0.0000000000        0.0000000000        0.0000000000
        0.0000000000        0.0000000000        0.0000000000
        0.0000000000        0.0000000000        0.0000000000
        0.0000000000        0.0000000000       -0.0426174926
        0.0000000000        0.0000000000        0.0000000000
        0.0000000000        0.0000000000        0.0000000000
 @CHECKOUT-I, Total execution time (CPU/WALL):     1159.36/     472.29 seconds.
--executable xsdcc finished with status     0 in      472.51 seconds (walltime).
 --invoking executable--
/nfs/workspaces/public/cfour_mpi/bin/xanti
 @GETMEM-I,  Allocated    3814 MB of main memory.
 CCSD MO derivative gammas will be sorted to Mulliken order.
 @CHECKOUT-I, Total execution time (CPU/WALL):       12.47/      21.40 seconds.
--executable xanti finished with status     0 in       21.53 seconds (walltime).
 --invoking executable--
/nfs/workspaces/public/cfour_mpi/bin/xbcktrn
 @GETMEM-I,  Allocated    3814 MB of main memory.
 CCSD MO derivative gammas will be transformed to the AO basis.
 @CHECKOUT-I, Total execution time (CPU/WALL):       27.53/      14.40 seconds.
--executable xbcktrn finished with status     0 in       14.46 seconds (walltime).
 --invoking executable--
/nfs/workspaces/public/cfour_mpi/bin/xvdint
 @GETMEM-I,  Allocated    3814 MB of main memory.
 One- and two-electron integral derivatives are calculated
 for RHF-CC/MBPT hessians and dipole derivatives.
 Spherical gaussians are used.
  magnet F F
                    8722  records have been written to the Sort file.
  Total length of Sort file :             178609116  words.
 Evaluation of 2el integral derivatives

                      Two-electron integral gradient
                      ------------------------------

                         C #1 z     0.0000000000
                         O #2 z     0.0000000000


 C #1       0.0000000000           -0.8353454460            0.0000000000
 O #2       0.0000000000            0.8353454460            0.0000000000


 Evaluation of 2e integral derivatives required  341.60 seconds.
  contribution to Hessian
        0.0000000000        0.0000000000        0.0000000000
        0.0000000000       -0.8353454460        0.8353454460
 @CHECKOUT-I, Total execution time (CPU/WALL):      341.59/      69.81 seconds.
--executable xvdint finished with status     0 in       69.96 seconds (walltime).
 --invoking executable--
/nfs/workspaces/public/cfour_mpi/bin/xanti
 @GETMEM-I,  Allocated    3814 MB of main memory.
 CCSD MO gammas will be sorted to Mulliken order.
 @CHECKOUT-I, Total execution time (CPU/WALL):       16.48/      50.82 seconds.
--executable xanti finished with status     0 in       53.48 seconds (walltime).
 --invoking executable--
/nfs/workspaces/public/cfour_mpi/bin/xbcktrn
 @GETMEM-I,  Allocated    3814 MB of main memory.
 CCSD MO gammas will be transformed to the AO basis.
 @CHECKOUT-I, Total execution time (CPU/WALL):       49.71/      10.50 seconds.
--executable xbcktrn finished with status     0 in       10.55 seconds (walltime).
 --invoking executable--
/nfs/workspaces/public/cfour_mpi/bin/xvdint
 @GETMEM-I,  Allocated    3814 MB of main memory.
 One- and two-electron integral derivatives are calculated
 for RHF-CC/MBPT hessians and dipole derivatives.
 Spherical gaussians are used.
  magnet F F

                     Kinetic energy integral gradient
                     --------------------------------

                         C #1 z    -1.6364004824
                         O #2 z     1.6364004824


 C #1       0.0000000000            0.0000000000           -1.6364004824
 O #2       0.0000000000            0.0000000000            1.6364004824



                   Nuclear attraction integral gradient
                   ------------------------------------

                         C #1 z    24.8171113981
                         O #2 z   -24.8171113981


 C #1       0.0000000000            0.0000000000           24.8171113981
 O #2       0.0000000000            0.0000000000          -24.8171113981



                      Reorthonormalization gradient
                      -----------------------------

                         C #1 z     0.0000000000
                         O #2 z     0.0000000000


 C #1       0.0000000000            0.0000000000            0.0000000000
 O #2       0.0000000000            0.0000000000            0.0000000000



                     Kinetic energy integral Hessian
                     -------------------------------


           Symmetry 1

           C #1 z      O #2 z

 C #1 z    1.052317
 O #2 z   -1.052317    1.052317


           Symmetry 2

           C #1 x      O #2 x

 C #1 x   -2.335441
 O #2 x    2.335441   -2.335441


           Symmetry 3

           C #1 y      O #2 y

 C #1 y   -2.335441
 O #2 y    2.335441   -2.335441




           C #1 x      C #1 y      C #1 z      O #2 x      O #2 y      O #2 z

 C #1 x   -2.335441
 C #1 y    0.000000   -2.335441
 C #1 z    0.000000    0.000000    1.052317

 O #2 x    2.335441    0.000000    0.000000   -2.335441
 O #2 y    0.000000    2.335441    0.000000    0.000000   -2.335441
 O #2 z    0.000000    0.000000   -1.052317    0.000000    0.000000    1.052317




                   Nuclear attraction integral Hessian
                   -----------------------------------


           Symmetry 1

           C #1 z      O #2 z

 C #1 z  -13.410373
 O #2 z   13.410373  -13.410373


           Symmetry 2

           C #1 x      O #2 x

 C #1 x   23.609949
 O #2 x  -23.609949   23.609949


           Symmetry 3

           C #1 y      O #2 y

 C #1 y   23.609949
 O #2 y  -23.609949   23.609949




           C #1 x      C #1 y      C #1 z      O #2 x      O #2 y      O #2 z

 C #1 x   23.609949
 C #1 y    0.000000   23.609949
 C #1 z    0.000000    0.000000  -13.410373

 O #2 x  -23.609949    0.000000    0.000000   23.609949
 O #2 y    0.000000  -23.609949    0.000000    0.000000   23.609949
 O #2 z    0.000000    0.000000   13.410373    0.000000    0.000000  -13.410373




                Highest order reorthonormalization Hessian
                ------------------------------------------


           Symmetry 1

           C #1 z      O #2 z

 C #1 z    0.000000
 O #2 z    0.000000    0.000000


           Symmetry 2

           C #1 x      O #2 x

 C #1 x    0.000000
 O #2 x    0.000000    0.000000


           Symmetry 3

           C #1 y      O #2 y

 C #1 y    0.000000
 O #2 y    0.000000    0.000000




           C #1 x      C #1 y      C #1 z      O #2 x      O #2 y      O #2 z




                Electronic contributions to dipole moment
                -----------------------------------------

                               au             Debye

                    z     -0.92179566     -2.34297127

  Conversion factor used: 1 a.u. =   2.54174691 Debye 



   Electronic contributions to static part of dipole moment derivatives
   --------------------------------------------------------------------


                     Total dipole moment derivatives
                     -------------------------------


           Symmetry 1
                              Ez

               C #1 z    -5.73680846
               O #2 z    -8.26319154

           Symmetry 2
                              Ex

               C #1 x    -5.82452465
               O #2 x    -8.17547535

           Symmetry 3
                              Ey

               C #1 y    -5.82452465
               O #2 y    -8.17547535



                       Ex          Ey          Ez

      C #1    x   -5.824525    0.000000    0.000000
      C #1    y    0.000000   -5.824525    0.000000
      C #1    z    0.000000    0.000000   -5.736808

      O #2    x   -8.175475    0.000000    0.000000
      O #2    y    0.000000   -8.175475    0.000000
      O #2    z    0.000000    0.000000   -8.263192

 Evaluation of 1e integral derivatives required    1.74 seconds.
                    8815  records have been written to the Sort file.
  Total length of Sort file :             180513570  words.
 Evaluation of 2el integral derivatives

                      Two-electron integral gradient
                      ------------------------------

                         C #1 z   -11.4775038423
                         O #2 z    11.4775038423


 C #1       0.0000000000            0.0000000000          -11.4775038423
 O #2       0.0000000000            0.0000000000           11.4775038423


 Evaluation of 2e integral derivatives required  714.92 seconds.

                            Molecular gradient
                            ------------------

                         C #1 z     0.3107287877
                         O #2 z    -0.3107287877


 C #1       0.0000000000            0.0000000000            0.3107287877
 O #2       0.0000000000            0.0000000000           -0.3107287877


  Molecular gradient norm 0.439E+00

                            Molecular hessian
                            -----------------


           Symmetry 1

           C #1 z      O #2 z

 C #1 z   73.629613
 O #2 z  -73.629613   73.629613


           Symmetry 2

           C #1 x      O #2 x

 C #1 x    5.193266
 O #2 x   -5.193266    5.193266


           Symmetry 3

           C #1 y      O #2 y

 C #1 y    5.193266
 O #2 y   -5.193266    5.193266




           C #1 x      C #1 y      C #1 z      O #2 x      O #2 y      O #2 z

 C #1 x    5.193266
 C #1 y    0.000000    5.193266
 C #1 z    0.000000    0.000000   73.629613

 O #2 x   -5.193266    0.000000    0.000000    5.193266
 O #2 y    0.000000   -5.193266    0.000000    0.000000    5.193266
 O #2 z    0.000000    0.000000  -73.629613    0.000000    0.000000   73.629613




                           Total dipole moment
                           -------------------

                               au             Debye

                    z     -0.10106381     -0.25687863

  Conversion factor used: 1 a.u. =   2.54174691 Debye 



                     Total dipole moment derivatives
                     -------------------------------


           Symmetry 1
                              Ez

               C #1 z     0.70763969
               O #2 z    -0.70763969

           Symmetry 2
                              Ex

               C #1 x    -0.05249646
               O #2 x     0.05249646

           Symmetry 3
                              Ey

               C #1 y    -0.05249646
               O #2 y     0.05249646



                       Ex          Ey          Ez

      C #1    x   -0.052496    0.000000    0.000000
      C #1    y    0.000000   -0.052496    0.000000
      C #1    z    0.000000    0.000000    0.707640

      O #2    x    0.052496    0.000000    0.000000
      O #2    y    0.000000    0.052496    0.000000
      O #2    z    0.000000    0.000000   -0.707640

 @CHECKOUT-I, Total execution time (CPU/WALL):      716.62/     136.37 seconds.
--executable xvdint finished with status     0 in      136.59 seconds (walltime).
 --invoking executable--
/nfs/workspaces/public/cfour_mpi/bin/xjoda
  @GTFLGS-I, Hessian will be transformed to curvilinear coordinates.
  @GTFLGS-I, Hessian will be transformed to curvilinear coordinates.
  igrd and ihes are                      0                     1
  gradient from JOBARC 
   0.000000000000000   0.000000000000000   0.310728787743676
   0.000000000000000   0.000000000000000  -0.310728787743676
 
  @PROJFCM-I, Projecting force constant matrix onto totally symmetric subspace.
  Largest difference between matrix elements of symmetrized
  and unsymmetrized FCM :    -0.1009503592E-10.
  read isotopes from ZMAT file 
 
  Summary of diagonal Born-Oppenheimer correction at the correlated level
  The total diagonal Born-Oppenheimer correction (DBOC) is:      0.0038740151 a.u.
  The total diagonal Born-Oppenheimer correction (DBOC) is:        850.248042 cm-1
  The total diagonal Born-Oppenheimer correction (DBOC) is:            10.171 kJ/mole
  hellooooooo 
  readis is  F
 
 @CHECKOUT-I, Total execution time (CPU/WALL):        0.02/       0.10 seconds.
--executable xjoda finished with status     0 in        0.16 seconds (walltime).
  The final electronic energy is      -113.278720779444257 a.u. 
  This computation required                         4304.54 seconds (walltime).
