 --invoking executable--
/nfs/workspaces/public/cfour_mpi/bin/xjoda


   *************************************************************************
         <<<     CCCCCC     CCCCCC   |||     CCCCCC     CCCCCC   >>>
       <<<      CCC        CCC       |||    CCC        CCC         >>>
      <<<      CCC        CCC        |||   CCC        CCC            >>>
    <<<        CCC        CCC        |||   CCC        CCC              >>>
      <<<      CCC        CCC        |||   CCC        CCC            >>>
       <<<      CCC        CCC       |||    CCC        CCC         >>>
         <<<     CCCCCC     CCCCCC   |||     CCCCCC     CCCCCC   >>>
   *************************************************************************

     ****************************************************************
     * CFOUR Coupled-Cluster techniques for Computational Chemistry *
     ****************************************************************
 

   Department of Chemistry                Institut fuer Physikalische Chemie
   University of Florida                  Universitaet Mainz
   Gainesville, FL 32611, USA             D-55099 Mainz, Germany

   Department of Chemistry                Fakultaet fuer Chemie und Biowiss.
   Johns Hopkins University               Karlsruher Institut fuer Technologie
   Baltimore, MD 21218, USA               D-76131 Karlsruhe, Germany

   Department of Chemistry                Department of Physical Chemistry
   Southern Methodist University          Eotvos Lorand University
   Dallas, TX 75275, USA                  H-1053 Budapest, Hungary

 
                       Version 2.1
 
                     vincent.theory.phys.ucl.ac.uk                     
                     Sat  1 Mar 19:19:25 GMT 2025                      
                     integer*8 version is running
 
********************************************************************************
*                          Input from ZMAT file                                *
********************************************************************************
Carbon Monoxide DBOC calculation                                                
C                                                                               
O 1 r                                                                           
                                                                                
r=1.1172413793103448                                                            
                                                                                
                                                                                
*CFOUR(CALC=CCSD,BASIS=AUG-PCVQZ,SCF_CONV=10                                    
CC_CONV=14,DBOC=ON,MEMORY=500000000                                             
ZFIELD=-200)                                                                    
                                                                                
%isotopes                                                                       
12                                                                              
18                                                                              
********************************************************************************
  @GTFLGS-I, Hessian will be transformed to curvilinear coordinates.
    -------------------------------------------------------------------
                    CFOUR Control Parameters 
    -------------------------------------------------------------------
        External           Internal           Value            Units
          Name               Name
    -------------------------------------------------------------------
       ABCDTYPE             IABCDT         STANDARD    [  0]    ***   
       ANHARMONIC           IANHAR         OFF         [  0]    ***   
       ANH_ALGORIT          IANALG         STANDARD    [  0]    ***   
       ANH_DERIVAT          IANDER         SECOND      [  1]    ***   
       ANH_MODE             ANHMOD         VIBRATION   [  0]    ***   
       ANH_STEPSIZ          ICUBST             50000          x 10-6  
       ANH_SYMMETR          IANHSM         ABELIAN     [  0]    ***   
       AO_LADDERS           IAOLAD         SINGLEPASS  [  1]    ***   
       AV_SCF               IAVSCF         OFF         [  0]    ***   
       BASIS                IBASIS         AUG-PCVQZ   [ 52]    ***   
       BOTHVECTORS          BOTHVC         OFF         [  0]    ***   
       BOX_POTENT           IPIAB          OFF         [  0]    ***   
       BREIT                IBREIT         OFF         [  0]    ***   
       BRUCK_CONV           IBRTOL          10D-  4             ***   
       BRUECKNER            IBRKNR         OFF         [  0]    ***   
       BUFFERSIZE           IBUFFS              4096            ***   
       CACHE_RECS           ICHREC             10               ***   
       CALCLEVEL            ICLLVL         CCSD        [ 10]    ***   
       CCORBOPT             ICCORB         OFF         [  0]  x 0.01  
       CC_CONV              ICCCNV          10D- 14             ***   
       CC_EXPORDER          ICCEOR              5               ***   
       CC_EXTRAPOL          ICCEXT         DIIS        [  1]    ***   
       CC_GUESS             ICCGES         MP2         [  0]    ***   
       CC_MAXCYC            ICCCYC            100              cycles 
       CC_PROGRAM           ICCPRO         VCC         [  0]    ***   
       CHARGE               ICHRGE              0               ***   
       CHOLESKY             ICHOLE         OFF         [  0]    ***   
       CIS_CONV             ICISTL              5               ***   
       COMM_SIZE            IPSIZE            ***               ***   
       CONSTANT             ICONST         OLD         [  1]    ***   
       CONTINUUM            ICONTU         NONE        [  0]    ***   
       CONTRACTION          ICNTYP         GENERAL     [  1]    ***   
       COORDINATES          ICOORD         INTERNAL    [  0]    ***   
       CPHF_CONVER          ICPHFT          10D- 16             ***   
       CPHF_MAXCYC          ICPHFC             64              cycles 
       CUBIC                ICUBIC         OFF         [  0]    ***   
       CURVILINEAR          ICURVY         ON          [  1]    ***   
       DBOC                 IDBOC          ON          [  1]    ***   
       DCT                  IDCT           OFF         [  0]    ***   
       DERIV_LEV            IDRLVL         SECOND      [  2]    ***   
       DEVMEM_SIZE          IDVMEM          50000000           MByte  
       DIAG_MRCC            IEOMST          10D-  0             ***   
       DIFF_TYPE            IDIFTY         RELAXED     [  0]    ***   
       DIRECT               IDIRCT         OFF         [  0]    ***   
       DROPMO               IDRPMO      NONE         
       ECP                  IECP           OFF         [  0]    ***   
       EIGENVECTOR          IVEC                1               ***   
       EL_ANHARM            IELANH         OFF         [  0]    ***   
       EOMFOLLOW            IEOMSR         ENERGY      [  0]    ***   
       EOMIP                IEOMIP         OFF         [  0]    ***   
       EOMLEVEL             HBARFM         SAME        [  0]    ***   
       EOM_MRCC             IMRCCE         NEW         [  1]    ***   
       EOM_NONIT            EOMNON         OFF         [  0]    ***   
       EOM_NSING            IEOMSI          10D-  0             ***   
       EOM_NSTATES          IMRCCD         DAVIDSON    [  0]    ***   
       EOM_NTRIP            IEOMTR          10D-  0             ***   
       EOM_ORDER            IEXORD         ENERGY      [  0]    ***   
       EOM_PROPSTA          IEOMST              0               ***   
       ESTATE_CONV          IEXTOL          10D-  5             ***   
       ESTATE_DIAG          IEXDIG         ITERATIVE   [  0]    ***   
       ESTATE_LOCK          IESLOC         ON          [  1]    ***   
       ESTATE_MAXC          IEXMXC             40               ***   
       ESTATE_PROP          IEXPRP         OFF         [  0]    ***   
       EVAL_HESS            IRECAL              0            # of cyc.
       EXCITATION           IEXCIT              0               ***   
       EXCITE               IEXCIT         NONE        [  0]    ***   
       EXTERN_POT           IEXPOT         OFF         [  0]    ***   
       FCGRADNEW            IFCGNW         OFF         [  0]    ***   
       FC_FIELD             IFINFC              0             x 10-6  
       FD_CALTYPE           IFDCAL         GRADONLY    [  0]    ***   
       FD_PROJECT           IFDPRJ         OFF         [  1]    ***   
       FD_STEPSIZE          IDISFD              0            10-4 bohr
       FD_USEGROUP          IFDGRP         FULL        [  0]    ***   
       FILE_RECSIZ          IFLREC              4096           words  
       FINITE_PERT          IFIPER              0             x 10-6  
       FIXGEOM              IFIXGM         OFF         [  0]    ***   
       FOCK                 IFOCK          AO          [  1]    ***   
       FREQ_ALGORI          IVIALG         STANDARD    [  0]    ***   
       FROZEN_CORE          IFROCO         OFF         [  0]    ***   
       GAMMA_ABCD           IGABCD         STORE       [  0]    ***   
       GAMMA_ABCI           IGABCI         STORE       [  0]    ***   
       GENBAS_1             IGNBS1              0               ***   
       GENBAS_2             IGNBS2              0               ***   
       GENBAS_3             IGNBS3              0               ***   
       GENBAS_4             IGNBS4              0               ***   
       GEO_CONV             ICONTL              5              H/bohr 
       GEO_MAXCYC           IOPTCY             50               ***   
       GEO_MAXSTEP          IMXSTP            300            millibohr
       GEO_METHOD           INR            SINGLE_POINT[  5]    ***   
       GIAO                 IGIAO          OFF         [  1]    ***   
       GIMIC                IGIMIC         OFF         [  0]    ***   
       GRID                 IGRID          OFF         [  0]    ***   
       GRID_ALGO            IGALGO         SERIAL      [  0]    ***   
       GUESS                IGUESS         MOREAD      [  0]    ***   
       HBAR                 IHBAR          OFF         [  0]    ***   
       HESS_TYPE            IHESTP         SCF         [  0]    ***   
       HF2_FILE             IHF2Fl         USE         [  1]    ***   
       HFSTABILITY          ISTABL         OFF         [  0]    ***   
       INCORE               INCORE         OFF         [  0]    ***   
       INPUT_MRCC           IMRCC          ON          [  1]    ***   
       INTEGRALS            INTTYP         VMOL        [  1]    ***   
       JODA_PRINT           IJPRNT              0               ***   
       KEYWORD_OUT          IDMPKW         NO          [  0]    ***   
       LINDEP_TOL           ILINDP              8               ***   
       LINEQ_CONV           IZTACN          10D-  7           cycles  
       LINEQ_EXPOR          ILMAXD              5               ***   
       LINEQ_MAXCY          ILMAXC            100               ***   
       LINEQ_TYPE           ILTYPE         DIIS        [  1]    ***   
       LOCK_ORBOCC          ILOCOC         OFF         [  0]    ***   
       MEMORY_SIZE          IMEMSZ         500000000           words  
       MEM_UNIT             IMEMU          INTEGERWORDS[  0]    ***   
       MRCC                 IMRCCC         OFF         [  0]    ***   
       MULTIPLICTY          IMULTP              1               ***   
       NACOUPLING           IVCOUP         OFF         [  0]    ***   
       NEGEVAL              IDIE           ABORT       [  0]    ***   
       NEWNORM              INEWNO         OFF         [  0]    ***   
       NON-HF               INONHF         OFF         [  0]    ***   
       NTOP_TAMP            ITOPT2             15               ***   
       NUC_MODEL            INUCMO         POINT       [  0]    ***   
       OCCUPATION           IOCCU   ESTIMATED BY SCF 
       OPEN-SHELL           IOPEN          SPIN-ORBITAL[  0]    ***   
       OPTVIB               IOPTVB         OFF         [  0]    ***   
       ORBITALS             IORBTP         STANDARD    [  0]    ***   
       PARALLEL             IPARAL         ON          [  1]    ***   
       PARA_INT             IPINTS         ON          [  1]    ***   
       PARA_PRINT           IPPRIN              0               ***   
       PERT_ORB             IPTORB         STANDARD    [  0]    ***   
       POINTS               IGRDFD              0               ***   
       PRINT                IPRNT               0               ***   
       PROPS                IPROPS         OFF         [  0]    ***   
       PROP_INTEGR          IINTYP         INTERNAL    [  0]    ***   
       PSI                  IPSI           OFF         [  0]    ***   
       QC_ALG               IQCALG         FLM         [  0]    ***   
       QC_LINALG            IQCLIN         TRIDIAG     [  2]    ***   
       QC_MAXCYC            IQCMAX          10D-100           cycles  
       QC_MAXSCFCY          IQCMSC          10D- 15           cycles  
       QC_RTRUST            IQCRTR          10D-  0           x 10-3  
       QC_SKIPSCF           IQCSKI         OFF         [  0]    ***   
       QC_START             IQCSTA          10D-  1             ***   
       QRHFGUESS            IQGUES         OFF         [  0]    ***   
       QUARTIC              IQUART         OFF         [  0]    ***   
       RAMAN_INT            IRAMIN         OFF         [  0]    ***   
       RAMAN_ORB            IRAMRE         UNRELAXED   [  0]    ***   
       RDO                  IRDOFM         ON          [  1]    ***   
       REDUCE_REPR          REDREP         Ir          [  0]    ***   
       REFERENCE            IREFNC         RHF         [  0]    ***   
       RELATIVIST           IRELAT         OFF         [  0]    ***   
       RELAX_DENS           IRDENS         ON          [  1]    ***   
       RESET_FLAGS          IRESET         OFF         [  0]    ***   
       RESTART_CC           ICCRES         OFF         [  0]    ***   
       ROT_EVEC             ROTVEC              0               ***   
       SAVE_INTS            ISVINT         OFF         [  0]    ***   
       SCALE_ON             ISTCRT              0               ***   
       SCF_CONV             ISCFCV          10D- 10             ***   
       SCF_DAMPING          IDAMP               0             x 10-3  
       SCF_EXPORDE          IRPPOR              6               ***   
       SCF_EXPSTAR          IRPPLS              8               ***   
       SCF_EXTRAPO          IRPP           ON          [  1]    ***   
       SCF_MAXCYC           ISCFCY            150              cycles 
       SCF_NOSTOP           ISCFST         OFF         [  0]    ***   
       SCF_PRINT            ISCFPR              0               ***   
       SCF_PROG             ISCFPR         SCF         [  0]    ***   
       SD_FIELD             IFINSD              0             x 10-6  
       SOPERT               IPERSO         OFF         [  0]    ***   
       SPHERICAL            IDFGHI         ON          [  1]    ***   
       SPINORBIT            ISOCAL         OFF         [  0]    ***   
       SPINROTATIO          ISRCON         OFF         [  0]    ***   
       SPIN_FLIP            ISPFLP         OFF         [  0]    ***   
       SPIN_ORBIT           ISPORB         OFF         [  0]    ***   
       SPIN_SCAL            ISCSMP         OFF         [  0]    ***   
       STEEPSCALE           ISTPSC              1000          x 10-3  
       SUBGROUP             ISUBGP         DEFAULT     [  0]    ***   
       SUBGRPAXIS           ISBXYZ         X           [  0]    ***   
       SYMMETRY             ISYM           ON          [  0]    ***   
       SYM_CHECK            ISYMCK         OVERRIDE    [  1]    ***   
       T3_EXTRAPOL          IT3EXT         OFF         [  0]    ***   
       T4_EXTRAPOL          IT4EXP         OFF         [  0]    ***   
       TAMP_SUM             IEVERY              5               ***   
       TESTSUITE            ITESTS         OFF         [  0]    ***   
       THERMOCH             ITHERM         OFF         [  0]    ***   
       TOL_CHOLESK          ITOLCH          10D-  4             ***   
       TRANGRAD             IRESRM         OFF         [  0]    ***   
       TRANS_INV            ITRAIN         IGNORE      [  1]    ***   
       TREAT_PERT           ITREAT         SIMULTANEOUS[  0]    ***   
       TRIP_ALGORI          ITRALG         NORMAL      [  0]    ***   
       UIJ_THRESHO          IUIJTH              1               ***   
       UNITS                IUNITS         ANGSTROM    [  0]    ***   
       UNOS                 IUNOS          OFF         [  0]    ***   
       UPDATE_HESS          IHUPDT         ON          [  1]    ***   
       VIBPHASE             ISETPH         STANDARD    [  0]    ***   
       VIBRATION            IVIB           ANALYTIC    [  1]    ***   
       VIB_ALGORIT          IGEALG         STANDARD    [  0]    ***   
       VNATORB              IVNORB         OFF         [  0]    ***   
       VTRAN                IVTRAN         FULL/PARTIAL[  0]    ***   
       XFIELD               IXEFLD              0             x 10-6  
       XFORM_TOL            IXFTOL          10D- 11             ***   
       YFIELD               IYEFLD              0             x 10-6  
       ZFIELD               IZEFLD            ***             x 10-6  
       ZSCALE_EXP           IZEXPS         OFF         [  0]    ***   
    -------------------------------------------------------------------
   2 entries found in Z-matrix 
   Job Title : Carbon Monoxide DBOC calculation                                                
   There are  1 unique internal coordinates.
   Of these,  0 will be optimized.
   User supplied Z-matrix: 
--------------------------------------------------------------------------------
       SYMBOL    BOND      LENGTH    ANGLE     ANGLE     DIHED     ANGLE
                  TO      (ANGST)    WRT      (DEG)      WRT      (DEG)
--------------------------------------------------------------------------------
        C    
        O          1         r    
                  *Initial values for internal coordinates* 
                      Name             Value
                        r               1.1172413793
--------------------------------------------------------------------------------
  read isotopes from ZMAT file 
   Rotational constants (in cm-1): 
          1.8757637487             1.8757637487
   Rotational constants (in MHz): 
      56233.9903622208         56233.9903622208
********************************************************************************
   The full molecular point group is CXv .
   The largest Abelian subgroup of the full molecular point group is C2v .
   The computational point group is C2v .
********************************************************************************
--------------------------------------------------------------------------------
   Analysis of internal coordinates specified by Z-matrix 
--------------------------------------------------------------------------------
   *The nuclear repulsion energy is   22.735016148148148 a.u.
   *There is   1 degree of freedom within the tot. symm. molecular subspace.
   *Z-matrix requests optimization of   0 coordinates.
   *The optimization is constrained.
   *The following   1 parameters can have non-zero 
    derivatives within the totally symmetric subspace:
             r    [ 1]
   *The following   0 parameters are to be optimized:

   *The following coordinates must be varied in an  unconstrained optimization.
             r    [ 1]
--------------------------------------------------------------------------------


 ----------------------------------------------------------------
         Coordinates used in calculation (QCOMP) 
 ----------------------------------------------------------------
 Z-matrix   Atomic            Coordinates (in bohr)
  Symbol    Number           X              Y              Z
 ----------------------------------------------------------------
     C         6        -0.00000000     0.00000000     1.26674476
     O         8         0.00000000     0.00000000    -0.84453590
 ----------------------------------------------------------------
 
   Interatomic distance matrix (Angstroms) 
 
                 C             O    
                [ 1]        [ 2]
  C    [ 1]     0.00000
  O    [ 2]     1.11724     0.00000
 rotcon2
   Rotational constants (in cm-1): 
          1.8757637487             0.0000000000
   Rotational constants (in MHz): 
      56233.9903622208             0.0000000000
  ECPDATA file not present.   Using default ECPDATA. 
  @GTFLGS-I, Hessian will be transformed to curvilinear coordinates.
  There are  218 basis functions.
 @CHECKOUT-I, Total execution time (CPU/WALL):        0.24/       0.33 seconds.
--executable xjoda finished with status     0 in        0.37 seconds (walltime).
 --invoking executable--
/nfs/workspaces/public/cfour_mpi/bin/xvmol
 SERIAL VERSION OF MOLECULE STARTED
********************************************************************************
                    INPUT FROM MOL FILE
********************************************************************************
INTGRL        1    0    1    0    0    0    0    0    0                         
         *** CFOUR Program System (Release V0.1) ***                            
Carbon Monoxide DBOC calculation                                                
    2    2 X  Y       0.10E-08              0    0                              
   9999.00      3.00                                                            
          6.00000000    1    5    1    1    1    1    1                         
C #1  -0.000000000000000   0.000000000000000   1.266744760122080                
   16    9                                                                      
   33980.0000000000       9.100000000000000E-005 -1.900000000000000E-005        
  0.000000000000000E+000  0.000000000000000E+000  0.000000000000000E+000        
  0.000000000000000E+000  0.000000000000000E+000  0.000000000000000E+000        
  0.000000000000000E+000                                                        
   5089.00000000000       7.040000000000000E-004 -1.510000000000000E-004        
  0.000000000000000E+000  0.000000000000000E+000  0.000000000000000E+000        
  0.000000000000000E+000  0.000000000000000E+000  0.000000000000000E+000        
  0.000000000000000E+000                                                        
   1157.00000000000       3.693000000000000E-003 -7.850000000000000E-004        
  0.000000000000000E+000  0.000000000000000E+000  0.000000000000000E+000        
  0.000000000000000E+000  0.000000000000000E+000  0.000000000000000E+000        
  0.000000000000000E+000                                                        
   326.600000000000       1.536000000000000E-002 -3.324000000000000E-003        
  0.000000000000000E+000  0.000000000000000E+000  0.000000000000000E+000        
  0.000000000000000E+000  0.000000000000000E+000  0.000000000000000E+000        
  0.000000000000000E+000                                                        
   106.100000000000       5.292900000000000E-002 -1.151200000000000E-002        
  0.000000000000000E+000  0.000000000000000E+000  0.000000000000000E+000        
  0.000000000000000E+000  0.000000000000000E+000  0.000000000000000E+000        
  0.000000000000000E+000                                                        
   38.1100000000000       0.147043000000000      -3.416000000000000E-002        
  0.000000000000000E+000  0.000000000000000E+000  0.000000000000000E+000        
  0.000000000000000E+000  0.000000000000000E+000  0.000000000000000E+000        
  0.000000000000000E+000                                                        
   14.7500000000000       0.305631000000000      -7.717300000000001E-002        
  0.000000000000000E+000  0.000000000000000E+000  0.000000000000000E+000        
  0.000000000000000E+000  0.000000000000000E+000  0.000000000000000E+000        
  0.000000000000000E+000                                                        
   6.03500000000000       0.399345000000000      -0.141493000000000             
  0.000000000000000E+000  0.000000000000000E+000  0.000000000000000E+000        
  0.000000000000000E+000  0.000000000000000E+000  0.000000000000000E+000        
  0.000000000000000E+000                                                        
   2.53000000000000       0.217051000000000      -0.118019000000000             
  0.000000000000000E+000  0.000000000000000E+000  0.000000000000000E+000        
  0.000000000000000E+000  0.000000000000000E+000  0.000000000000000E+000        
  0.000000000000000E+000                                                        
  0.735500000000000       1.589400000000000E-002  0.273806000000000             
   1.00000000000000       0.000000000000000E+000  0.000000000000000E+000        
  0.000000000000000E+000  0.000000000000000E+000  0.000000000000000E+000        
  0.000000000000000E+000                                                        
  0.290500000000000      -3.084000000000000E-003  0.586510000000000             
  0.000000000000000E+000   1.00000000000000       0.000000000000000E+000        
  0.000000000000000E+000  0.000000000000000E+000  0.000000000000000E+000        
  0.000000000000000E+000                                                        
  0.111100000000000       9.779999999999999E-004  0.285430000000000             
  0.000000000000000E+000  0.000000000000000E+000   1.00000000000000             
  0.000000000000000E+000  0.000000000000000E+000  0.000000000000000E+000        
  0.000000000000000E+000                                                        
   7.21600000000000       0.000000000000000E+000  0.000000000000000E+000        
  0.000000000000000E+000  0.000000000000000E+000  0.000000000000000E+000        
   1.00000000000000       0.000000000000000E+000  0.000000000000000E+000        
  0.000000000000000E+000                                                        
   19.5700000000000       0.000000000000000E+000  0.000000000000000E+000        
  0.000000000000000E+000  0.000000000000000E+000  0.000000000000000E+000        
  0.000000000000000E+000   1.00000000000000       0.000000000000000E+000        
  0.000000000000000E+000                                                        
   53.0730000000000       0.000000000000000E+000  0.000000000000000E+000        
  0.000000000000000E+000  0.000000000000000E+000  0.000000000000000E+000        
  0.000000000000000E+000  0.000000000000000E+000   1.00000000000000             
  0.000000000000000E+000                                                        
  4.145000000000000E-002  0.000000000000000E+000  0.000000000000000E+000        
  0.000000000000000E+000  0.000000000000000E+000  0.000000000000000E+000        
  0.000000000000000E+000  0.000000000000000E+000  0.000000000000000E+000        
   1.00000000000000                                                             
   10    8                                                                      
   34.5100000000000       5.378000000000000E-003  0.000000000000000E+000        
  0.000000000000000E+000  0.000000000000000E+000  0.000000000000000E+000        
  0.000000000000000E+000  0.000000000000000E+000  0.000000000000000E+000        
   7.91500000000000       3.613200000000000E-002  0.000000000000000E+000        
  0.000000000000000E+000  0.000000000000000E+000  0.000000000000000E+000        
  0.000000000000000E+000  0.000000000000000E+000  0.000000000000000E+000        
   2.36800000000000       0.142493000000000       0.000000000000000E+000        
  0.000000000000000E+000  0.000000000000000E+000  0.000000000000000E+000        
  0.000000000000000E+000  0.000000000000000E+000  0.000000000000000E+000        
  0.813200000000000       0.342150000000000        1.00000000000000             
  0.000000000000000E+000  0.000000000000000E+000  0.000000000000000E+000        
  0.000000000000000E+000  0.000000000000000E+000  0.000000000000000E+000        
  0.289000000000000       0.463864000000000       0.000000000000000E+000        
   1.00000000000000       0.000000000000000E+000  0.000000000000000E+000        
  0.000000000000000E+000  0.000000000000000E+000  0.000000000000000E+000        
  0.100700000000000       0.250028000000000       0.000000000000000E+000        
  0.000000000000000E+000   1.00000000000000       0.000000000000000E+000        
  0.000000000000000E+000  0.000000000000000E+000  0.000000000000000E+000        
   8.18200000000000       0.000000000000000E+000  0.000000000000000E+000        
  0.000000000000000E+000  0.000000000000000E+000   1.00000000000000             
  0.000000000000000E+000  0.000000000000000E+000  0.000000000000000E+000        
   24.1860000000000       0.000000000000000E+000  0.000000000000000E+000        
  0.000000000000000E+000  0.000000000000000E+000  0.000000000000000E+000        
   1.00000000000000       0.000000000000000E+000  0.000000000000000E+000        
   71.4940000000000       0.000000000000000E+000  0.000000000000000E+000        
  0.000000000000000E+000  0.000000000000000E+000  0.000000000000000E+000        
  0.000000000000000E+000   1.00000000000000       0.000000000000000E+000        
  3.218000000000000E-002  0.000000000000000E+000  0.000000000000000E+000        
  0.000000000000000E+000  0.000000000000000E+000  0.000000000000000E+000        
  0.000000000000000E+000  0.000000000000000E+000   1.00000000000000             
    6    6                                                                      
   1.84800000000000        1.00000000000000       0.000000000000000E+000        
  0.000000000000000E+000  0.000000000000000E+000  0.000000000000000E+000        
  0.000000000000000E+000                                                        
  0.649000000000000       0.000000000000000E+000   1.00000000000000             
  0.000000000000000E+000  0.000000000000000E+000  0.000000000000000E+000        
  0.000000000000000E+000                                                        
  0.228000000000000       0.000000000000000E+000  0.000000000000000E+000        
   1.00000000000000       0.000000000000000E+000  0.000000000000000E+000        
  0.000000000000000E+000                                                        
   8.65600000000000       0.000000000000000E+000  0.000000000000000E+000        
  0.000000000000000E+000   1.00000000000000       0.000000000000000E+000        
  0.000000000000000E+000                                                        
   33.2130000000000       0.000000000000000E+000  0.000000000000000E+000        
  0.000000000000000E+000  0.000000000000000E+000   1.00000000000000             
  0.000000000000000E+000                                                        
  7.660000000000000E-002  0.000000000000000E+000  0.000000000000000E+000        
  0.000000000000000E+000  0.000000000000000E+000  0.000000000000000E+000        
   1.00000000000000                                                             
    4    4                                                                      
   1.41900000000000        1.00000000000000       0.000000000000000E+000        
  0.000000000000000E+000  0.000000000000000E+000                                
  0.485000000000000       0.000000000000000E+000   1.00000000000000             
  0.000000000000000E+000  0.000000000000000E+000                                
   24.6940000000000       0.000000000000000E+000  0.000000000000000E+000        
   1.00000000000000       0.000000000000000E+000                                
  0.187000000000000       0.000000000000000E+000  0.000000000000000E+000        
  0.000000000000000E+000   1.00000000000000                                     
    2    2                                                                      
   1.01100000000000        1.00000000000000       0.000000000000000E+000        
  0.424000000000000       0.000000000000000E+000   1.00000000000000             
          8.00000000    1    5    1    1    1    1    1                         
O #2   0.000000000000000   0.000000000000000  -0.844535904347991                
   16    9                                                                      
   61420.0000000000       9.000000000000001E-005 -2.000000000000000E-005        
  0.000000000000000E+000  0.000000000000000E+000  0.000000000000000E+000        
  0.000000000000000E+000  0.000000000000000E+000  0.000000000000000E+000        
  0.000000000000000E+000                                                        
   9199.00000000000       6.980000000000001E-004 -1.590000000000000E-004        
  0.000000000000000E+000  0.000000000000000E+000  0.000000000000000E+000        
  0.000000000000000E+000  0.000000000000000E+000  0.000000000000000E+000        
  0.000000000000000E+000                                                        
   2091.00000000000       3.664000000000000E-003 -8.290000000000000E-004        
  0.000000000000000E+000  0.000000000000000E+000  0.000000000000000E+000        
  0.000000000000000E+000  0.000000000000000E+000  0.000000000000000E+000        
  0.000000000000000E+000                                                        
   590.900000000000       1.521800000000000E-002 -3.508000000000000E-003        
  0.000000000000000E+000  0.000000000000000E+000  0.000000000000000E+000        
  0.000000000000000E+000  0.000000000000000E+000  0.000000000000000E+000        
  0.000000000000000E+000                                                        
   192.300000000000       5.242300000000000E-002 -1.215600000000000E-002        
  0.000000000000000E+000  0.000000000000000E+000  0.000000000000000E+000        
  0.000000000000000E+000  0.000000000000000E+000  0.000000000000000E+000        
  0.000000000000000E+000                                                        
   69.3200000000000       0.145921000000000      -3.626100000000000E-002        
  0.000000000000000E+000  0.000000000000000E+000  0.000000000000000E+000        
  0.000000000000000E+000  0.000000000000000E+000  0.000000000000000E+000        
  0.000000000000000E+000                                                        
   26.9700000000000       0.305258000000000      -8.299200000000000E-002        
  0.000000000000000E+000  0.000000000000000E+000  0.000000000000000E+000        
  0.000000000000000E+000  0.000000000000000E+000  0.000000000000000E+000        
  0.000000000000000E+000                                                        
   11.1000000000000       0.398508000000000      -0.152090000000000             
  0.000000000000000E+000  0.000000000000000E+000  0.000000000000000E+000        
  0.000000000000000E+000  0.000000000000000E+000  0.000000000000000E+000        
  0.000000000000000E+000                                                        
   4.68200000000000       0.216980000000000      -0.115331000000000             
  0.000000000000000E+000  0.000000000000000E+000  0.000000000000000E+000        
  0.000000000000000E+000  0.000000000000000E+000  0.000000000000000E+000        
  0.000000000000000E+000                                                        
   1.42800000000000       1.759400000000000E-002  0.288979000000000             
   1.00000000000000       0.000000000000000E+000  0.000000000000000E+000        
  0.000000000000000E+000  0.000000000000000E+000  0.000000000000000E+000        
  0.000000000000000E+000                                                        
  0.554700000000000      -2.502000000000000E-003  0.586128000000000             
  0.000000000000000E+000   1.00000000000000       0.000000000000000E+000        
  0.000000000000000E+000  0.000000000000000E+000  0.000000000000000E+000        
  0.000000000000000E+000                                                        
  0.206700000000000       9.540000000000000E-004  0.277624000000000             
  0.000000000000000E+000  0.000000000000000E+000   1.00000000000000             
  0.000000000000000E+000  0.000000000000000E+000  0.000000000000000E+000        
  0.000000000000000E+000                                                        
   12.9740000000000       0.000000000000000E+000  0.000000000000000E+000        
  0.000000000000000E+000  0.000000000000000E+000  0.000000000000000E+000        
   1.00000000000000       0.000000000000000E+000  0.000000000000000E+000        
  0.000000000000000E+000                                                        
   34.9000000000000       0.000000000000000E+000  0.000000000000000E+000        
  0.000000000000000E+000  0.000000000000000E+000  0.000000000000000E+000        
  0.000000000000000E+000   1.00000000000000       0.000000000000000E+000        
  0.000000000000000E+000                                                        
   93.8810000000000       0.000000000000000E+000  0.000000000000000E+000        
  0.000000000000000E+000  0.000000000000000E+000  0.000000000000000E+000        
  0.000000000000000E+000  0.000000000000000E+000   1.00000000000000             
  0.000000000000000E+000                                                        
  6.959000000000000E-002  0.000000000000000E+000  0.000000000000000E+000        
  0.000000000000000E+000  0.000000000000000E+000  0.000000000000000E+000        
  0.000000000000000E+000  0.000000000000000E+000  0.000000000000000E+000        
   1.00000000000000                                                             
   10    8                                                                      
   63.4200000000000       6.044000000000000E-003  0.000000000000000E+000        
  0.000000000000000E+000  0.000000000000000E+000  0.000000000000000E+000        
  0.000000000000000E+000  0.000000000000000E+000  0.000000000000000E+000        
   14.6600000000000       4.179900000000000E-002  0.000000000000000E+000        
  0.000000000000000E+000  0.000000000000000E+000  0.000000000000000E+000        
  0.000000000000000E+000  0.000000000000000E+000  0.000000000000000E+000        
   4.45900000000000       0.161143000000000       0.000000000000000E+000        
  0.000000000000000E+000  0.000000000000000E+000  0.000000000000000E+000        
  0.000000000000000E+000  0.000000000000000E+000  0.000000000000000E+000        
   1.53100000000000       0.356731000000000        1.00000000000000             
  0.000000000000000E+000  0.000000000000000E+000  0.000000000000000E+000        
  0.000000000000000E+000  0.000000000000000E+000  0.000000000000000E+000        
  0.530200000000000       0.448309000000000       0.000000000000000E+000        
   1.00000000000000       0.000000000000000E+000  0.000000000000000E+000        
  0.000000000000000E+000  0.000000000000000E+000  0.000000000000000E+000        
  0.175000000000000       0.244940000000000       0.000000000000000E+000        
  0.000000000000000E+000   1.00000000000000       0.000000000000000E+000        
  0.000000000000000E+000  0.000000000000000E+000  0.000000000000000E+000        
   14.4750000000000       0.000000000000000E+000  0.000000000000000E+000        
  0.000000000000000E+000  0.000000000000000E+000   1.00000000000000             
  0.000000000000000E+000  0.000000000000000E+000  0.000000000000000E+000        
   42.7300000000000       0.000000000000000E+000  0.000000000000000E+000        
  0.000000000000000E+000  0.000000000000000E+000  0.000000000000000E+000        
   1.00000000000000       0.000000000000000E+000  0.000000000000000E+000        
   126.140000000000       0.000000000000000E+000  0.000000000000000E+000        
  0.000000000000000E+000  0.000000000000000E+000  0.000000000000000E+000        
  0.000000000000000E+000   1.00000000000000       0.000000000000000E+000        
  5.348000000000000E-002  0.000000000000000E+000  0.000000000000000E+000        
  0.000000000000000E+000  0.000000000000000E+000  0.000000000000000E+000        
  0.000000000000000E+000  0.000000000000000E+000   1.00000000000000             
    6    6                                                                      
   3.77500000000000        1.00000000000000       0.000000000000000E+000        
  0.000000000000000E+000  0.000000000000000E+000  0.000000000000000E+000        
  0.000000000000000E+000                                                        
   1.30000000000000       0.000000000000000E+000   1.00000000000000             
  0.000000000000000E+000  0.000000000000000E+000  0.000000000000000E+000        
  0.000000000000000E+000                                                        
  0.444000000000000       0.000000000000000E+000  0.000000000000000E+000        
   1.00000000000000       0.000000000000000E+000  0.000000000000000E+000        
  0.000000000000000E+000                                                        
   14.9270000000000       0.000000000000000E+000  0.000000000000000E+000        
  0.000000000000000E+000   1.00000000000000       0.000000000000000E+000        
  0.000000000000000E+000                                                        
   57.5440000000000       0.000000000000000E+000  0.000000000000000E+000        
  0.000000000000000E+000  0.000000000000000E+000   1.00000000000000             
  0.000000000000000E+000                                                        
  0.154000000000000       0.000000000000000E+000  0.000000000000000E+000        
  0.000000000000000E+000  0.000000000000000E+000  0.000000000000000E+000        
   1.00000000000000                                                             
    4    4                                                                      
   2.66600000000000        1.00000000000000       0.000000000000000E+000        
  0.000000000000000E+000  0.000000000000000E+000                                
  0.859000000000000       0.000000000000000E+000   1.00000000000000             
  0.000000000000000E+000  0.000000000000000E+000                                
   26.4830000000000       0.000000000000000E+000  0.000000000000000E+000        
   1.00000000000000       0.000000000000000E+000                                
  0.324000000000000       0.000000000000000E+000  0.000000000000000E+000        
  0.000000000000000E+000   1.00000000000000                                     
    2    2                                                                      
   1.84600000000000        1.00000000000000       0.000000000000000E+000        
  0.714000000000000       0.000000000000000E+000   1.00000000000000             
FINISH                                                                          
 
********************************************************************************
 ONE- AND TWO-ELECTRON INTEGRALS OVER SYMMETRY-ADAPTED AOS ARE CALCULATED.

  SPHERICAL HARMONICS ARE USED.
  
  INTEGRALS LESS THAN  0.10E-13 ARE NEGLECTED.

  NUCLEAR REPULSION ENERGY :   22.7350161481 A.U.
  @MOLECU-I, ONE ELECTRON INTEGRALS (CPU/WALL):        0.06/       0.08 SECONDS.
  @TWOEL-I,    4601674 INTEGRALS OF SYMMETRY TYPE  I I I I
  @TWOEL-I,   19745308 INTEGRALS OF SYMMETRY TYPE  I J I J
  @TWOEL-I,   10405790 INTEGRALS OF SYMMETRY TYPE  I I J J
  @TWOEL-I,   14608430 INTEGRALS OF SYMMETRY TYPE  I J K L
  @TWOEL-I, TOTAL NUMBER OF 2-E INTEGRALS   49361202.
  @MOLECU-I, TWO ELECTRON INTEGRALS (CPU/WALL):      247.75/      33.50 SECONDS.
 @CHECKOUT-I, Total execution time (CPU/WALL):      247.87/      33.67 seconds.

Running with 14 threads/proc

--executable xvmol finished with status     0 in       33.75 seconds (walltime).
 --invoking executable--
/nfs/workspaces/public/cfour_mpi/bin/xvmol2ja
 @GETMEM-I,  Allocated    3814 MB of main memory.
 @CHECKOUT-I, Total execution time (CPU/WALL):        0.29/       0.10 seconds.
--executable xvmol2ja finished with status     0 in        0.15 seconds (walltime).
 --invoking executable--
/nfs/workspaces/public/cfour_mpi/bin/xvprop
 @GETMEM-I,  Allocated    3814 MB of main memory.
   Property integrals will be calculated.
    --------------------------------------------------------------
                                   Property evaluated at 
    Property type                X             Y             Z
    --------------------------------------------------------------
    Dipole moment               ----          ----          ----  
    Quadrupole moment           ----          ----          ----  
    Octopole moment             ----          ----          ----  
    Relativisitic corr.         ----          ----          ----  
    Second moment            0.0000000     0.0000000     0.0000000
    Electron density         0.0000000     0.0000000     1.2667448
    Electron density         0.0000000     0.0000000    -0.8445359
    Field gradient           0.0000000     0.0000000     1.2667448
    Field gradient           0.0000000     0.0000000    -0.8445359
    Potential                0.0000000     0.0000000     1.2667448
    Potential                0.0000000     0.0000000    -0.8445359
    --------------------------------------------------------------
 @CHECKOUT-I, Total execution time (CPU/WALL):        1.51/       1.56 seconds.
--executable xvprop finished with status     0 in        1.58 seconds (walltime).
 --invoking executable--
/nfs/workspaces/public/cfour_mpi/bin/xvscf
  There are  218 functions in the AO basis.

  There are 4 irreducible representations.

       Irrep        # of functions
         1                 86
         2                 52
         3                 52
         4                 28


  Parameters for SCF calculation: 
        SCF reference function:  RHF  
  Maximum number of iterations:  150
     Full symmetry point group: CXv 
     Computational point group: C2v 
        Initial density matrix: MOREAD                 
     SCF convergence tolerance: 10**(-10)
  DIIS convergence acceleration:  ON
          Latest start for DIIS:   8
                     DIIS order:   6

  Memory information:    2523578 words required.
  Fock matrices are constructed from AO integral file.
 @GETMEM-I,  Allocated      19 MB of main memory.
  Initialization and symmetry analysis required      0.002 seconds.

  Adding electric field perturbation to one-electron Hamiltonian.
  Field direction     : Z
  Field strength      : -0.0002000 a.u.

  @INITGES-I, Occupancies from core Hamiltonian:

          Alpha population by irrep:   5    1    1    0
           Beta population by irrep:   5    1    1    0


 total no. of electrons in initial guess :  0.000000000000000E+000
  --------------------------------------------------------------------
  Iteration         Total Energy            Largest Density Difference
  --------------------------------------------------------------------
       0            22.735184984412907              0.0000000000D+00
   current occupation vector 
     5  1  1  0
     5  1  1  0
       1           -91.704470861707563              0.1878701377D+02
   current occupation vector 
     5  1  1  0
     5  1  1  0
       2           -96.209852225802976              0.2676496817D+02
   current occupation vector 
     5  1  1  0
     5  1  1  0
       3          -103.325727278845591              0.2675203207D+02
   current occupation vector 
     5  1  1  0
     5  1  1  0
       4          -100.451044944042849              0.7636095252D+01
   current occupation vector 
     5  1  1  0
     5  1  1  0
       5          -103.611703496738713              0.7611595643D+01
   current occupation vector 
     5  1  1  0
     5  1  1  0
       6          -100.701904267548258              0.5799809559D+01
   current occupation vector 
     5  1  1  0
     5  1  1  0
       7          -103.338763340455429              0.5556945583D+01
   current occupation vector 
     5  1  1  0
     5  1  1  0
       8          -100.405032343868086              0.5539273912D+01
   current occupation vector 
     5  1  1  0
     5  1  1  0
       9          -110.904819601041083              0.4136320595D+01
   current occupation vector 
     5  1  1  0
     5  1  1  0
      10          -112.341346709105977              0.9118968738D+00
   current occupation vector 
     5  1  1  0
     5  1  1  0
      11          -112.778016106989071              0.4843682713D+00
   current occupation vector 
     5  1  1  0
     5  1  1  0
      12          -112.789985561365256              0.9866800050D-01
   current occupation vector 
     5  1  1  0
     5  1  1  0
      13          -112.790356191269552              0.2121803105D-01
   current occupation vector 
     5  1  1  0
     5  1  1  0
      14          -112.790427274740551              0.1294325600D-01
   current occupation vector 
     5  1  1  0
     5  1  1  0
      15          -112.790429680935006              0.3098389050D-02
   current occupation vector 
     5  1  1  0
     5  1  1  0
      16          -112.790429708907453              0.2702335307D-03
   current occupation vector 
     5  1  1  0
     5  1  1  0
      17          -112.790429709562886              0.3212076372D-04
   current occupation vector 
     5  1  1  0
     5  1  1  0
      18          -112.790429709582469              0.5027820959D-05
   current occupation vector 
     5  1  1  0
     5  1  1  0
      19          -112.790429709583663              0.9858590304D-06
   current occupation vector 
     5  1  1  0
     5  1  1  0
      20          -112.790429709581389              0.1505183146D-06
   current occupation vector 
     5  1  1  0
     5  1  1  0
      21          -112.790429709582952              0.2851590608D-07
   current occupation vector 
     5  1  1  0
     5  1  1  0
      22          -112.790429709582270              0.6485600501D-08
   current occupation vector 
     5  1  1  0
     5  1  1  0
      23          -112.790429709583009              0.4239133489D-08
   current occupation vector 
     5  1  1  0
     5  1  1  0
      24          -112.790429709583265              0.1026684848D-09
   current occupation vector 
     5  1  1  0
     5  1  1  0
      25          -112.790429709580621              0.1266913241D-09
   current occupation vector 
     5  1  1  0
     5  1  1  0

  SCF has converged.

 Density matrix saved to file den.dat
 total electron number:   14.0000000000000     
     E(SCF)=      -112.790429709582497              0.6291767107D-10

  Eigenvector printing suppressed.

 @PUTMOS-I, Writing converged MOs to NEWMOS. 
 @PUTMOS-I, Symmetry   1 Full Blocks 21 Partial Blocksize   2
 @PUTMOS-I, Symmetry   2 Full Blocks 13 Partial Blocksize   0
 @PUTMOS-I, Symmetry   3 Full Blocks 13 Partial Blocksize   0
 @PUTMOS-I, Symmetry   4 Full Blocks  7 Partial Blocksize   0
 @PUTFOCK-I, Writing converged Fock matrix to NEWFOCK. 
 @PUTFOCK-I, Symmetry   1 Full Blocks 21 Partial Blocksize   2
 @PUTFOCK-I, Symmetry   2 Full Blocks 13 Partial Blocksize   0
 @PUTFOCK-I, Symmetry   3 Full Blocks 13 Partial Blocksize   0
 @PUTFOCK-I, Symmetry   4 Full Blocks  7 Partial Blocksize   0


 
  ORBITAL EIGENVALUES (ALPHA)  (1H = 27.2113834 eV)

       MO #        E(hartree)               E(eV)           FULLSYM    COMPSYM
       ----   --------------------   --------------------   -------   ---------
    1     1         -20.6649010295        -562.3205448366     SG+        A1 (1)
    2     2         -11.3554596744        -308.9977668832     SG+        A1 (1)
    3     3          -1.5294432595         -41.6182669216     SG+        A1 (1)
    4     4          -0.8056048254         -21.9216217723     SG+        A1 (1)
    5   139          -0.6452267425         -17.5575122708      PI        B2 (3)
    6    87          -0.6452267425         -17.5575122708      PI        B1 (2)
    7     5          -0.5538890199         -15.0720864805     SG+        A1 (1)
  +++++++++++++++++++++++++++++++++++++++++++++++++++++++++++++++++++++++++++++
    8     6           0.0603235483           1.6414872008     SG+        A1 (1)
    9    88           0.0626774702           1.7055406718      PI        B1 (2)
   10   140           0.0626774702           1.7055406718      PI        B2 (3)
   11     7           0.0738763150           2.0102767328     SG+        A1 (1)
   12   141           0.1437179575           3.9107644432      PI        B2 (3)
   13    89           0.1437179575           3.9107644432      PI        B1 (2)
   14     8           0.1566458898           4.2625513663     SG+        A1 (1)
   15   142           0.1673599221           4.5540950065      PI        B2 (3)
   16    90           0.1673599221           4.5540950065      PI        B1 (2)
   17   191           0.2276494462           6.1946563623      DE        A2 (4)
   18     9           0.2276494462           6.1946563623      DE        A1 (1)
   19    10           0.2280441955           6.2053980367     SG+        A1 (1)
   20    11           0.3010690911           8.1925064684     SG+        A1 (1)
   21   143           0.3214943935           8.7483072025      PI        B2 (3)
   22    91           0.3214943935           8.7483072025      PI        B1 (2)
   23    12           0.3916894023          10.6584104987     SG+        A1 (1)
   24   144           0.3960387741          10.7767629227      PI        B2 (3)
   25    92           0.3960387741          10.7767629227      PI        B1 (2)
   26    13           0.5085751728          13.8390340156     SG+        A1 (1)
   27    14           0.5339616849          14.5298361290      DE        A1 (1)
   28   192           0.5339616849          14.5298361290      DE        A2 (4)
   29   145           0.6230575709          16.9542584414      PI        B2 (3)
   30    93           0.6230575709          16.9542584414      PI        B1 (2)
   31    15           0.6480839617          17.6352611579     SG+        A1 (1)
   32    94           0.7487559329          20.3746847643      PH        B1 (2)
   33   146           0.7487559329          20.3746847643      PH        B2 (3)
   34   193           0.7687327232          20.9182808633      DE        A2 (4)
   35    16           0.7687327232          20.9182808633      DE        A1 (1)
   36    17           0.7802418986          21.2314614483     SG+        A1 (1)
   37   147           0.8244746648          22.4350962069      PI        B2 (3)
   38    95           0.8244746648          22.4350962069      PI        B1 (2)
   39    18           0.8728044884          23.7502175659     SG+        A1 (1)
   40   148           0.8802130554          23.9518149248      PI        B2 (3)
   41    96           0.8802130554          23.9518149248      PI        B1 (2)
   42    19           0.8916868163          24.2640318320      DE        A1 (1)
   43   194           0.8916868163          24.2640318320      DE        A2 (4)
   44    20           0.9156188791          24.9152563669     SG+        A1 (1)
   45   149           1.0792227568          29.3671442095      PI        B2 (3)
   46    97           1.0792227568          29.3671442096      PI        B1 (2)
   47    21           1.2045101787          32.7763882828     SG+        A1 (1)
   48    98           1.4484373279          39.4139834617      PH        B1 (2)
   49   150           1.4484373279          39.4139834617      PH        B2 (3)
   50    22           1.4789227743          40.2435346308     SG+        A1 (1)
   51    23           1.5160557288          41.2539736927      DE        A1 (1)
   52   195           1.5160557288          41.2539736927      DE        A2 (4)
   53   151           1.5521299357          42.2356027660      PI        B2 (3)
   54    99           1.5521299357          42.2356027660      PI        B1 (2)
   55    24           1.6669946463          45.3612304467     SG+        A1 (1)
   56    25           1.7675069040          48.0963080259     SG+        A1 (1)
   57   196           1.7703018277          48.1723617659      DE        A2 (4)
   58    26           1.7703018277          48.1723617660      DE        A1 (1)
   59   152           1.8142218096          49.3674852337      PI        B2 (3)
   60   100           1.8142218096          49.3674852337      PI        B1 (2)
   61   153           1.9639619088          53.4421204829      PI        B2 (3)
   62   101           1.9639619088          53.4421204830      PI        B1 (2)
   63   197           2.1061923848          57.3124084979      PI        A2 (4)
   64    27           2.1061923848          57.3124084979      PI        A1 (1)
   65    28           2.1420914341          58.2892712904     SG+        A1 (1)
   66   198           2.1981572010          59.8148983689      DE        A2 (4)
   67    29           2.1981572010          59.8148983689      DE        A1 (1)
   68   102           2.2526078657          61.2965762831      PH        B1 (2)
   69   154           2.2526078657          61.2965762831      PH        B2 (3)
   70    30           2.3165261908          63.0358823330     SG+        A1 (1)
   71   155           2.3269637570          63.3199029484      PI        B2 (3)
   72   103           2.3269637570          63.3199029484      PI        B1 (2)
   73   199           2.3659007628          64.3794327423      DE        A2 (4)
   74    31           2.3659007628          64.3794327423      DE        A1 (1)
   75   156           2.3671721003          64.4140275961      PH        B2 (3)
   76   104           2.3671721003          64.4140275961      PH        B1 (2)
   77    32           2.4890325290          67.7300184423     SG+        A1 (1)
   78   157           2.5999723189          70.7488435982      PI        B2 (3)
   79   105           2.5999723189          70.7488435982      PI        B1 (2)
   80   158           2.8428445270          77.3577323714      PI        B2 (3)
   81   106           2.8428445270          77.3577323714      PI        B1 (2)
   82    33           2.9579111876          80.4888553897     SG+        A1 (1)
   83   200           3.0185837470          82.1398396658      DE        A2 (4)
   84    34           3.0185837471          82.1398396660      DE        A1 (1)
   85    35           3.4714313761          94.4624501208     SG+        A1 (1)
   86    36           3.7258459071         101.3854214679      PI        A1 (1)
   87   201           3.7258459071         101.3854214679      PI        A2 (4)
   88   159           3.7539047884         102.1489424455      PI        B2 (3)
   89   107           3.7539047885         102.1489424456      PI        B1 (2)
   90    37           3.9512542911         107.5190954249     SG+        A1 (1)
   91   108           4.0817283456         111.0694749479      PH        B1 (2)
   92   160           4.0817283456         111.0694749479      PH        B2 (3)
   93    38           4.1760579781         113.6363147434      DE        A1 (1)
   94   202           4.1760579781         113.6363147434      DE        A2 (4)
   95   161           4.2110005827         114.5871513547      PI        B2 (3)
   96   109           4.2110005827         114.5871513547      PI        B1 (2)
   97    39           4.2757359165         116.3486893407     SG+        A1 (1)
   98   110           4.2962786553         116.9076856814      PH        B1 (2)
   99   162           4.2962786553         116.9076856814      PH        B2 (3)
  100   203           4.3867059720         119.3683380663      DE        A2 (4)
  101    40           4.3867059720         119.3683380663      DE        A1 (1)
  102    41           4.5533977634         123.9042523130     SG+        A1 (1)
  103   163           4.7629134882         129.6054650286      PI        B2 (3)
  104   111           4.7629134882         129.6054650287      PI        B1 (2)
  105    42           5.0009403950         136.0825064499     SG+        A1 (1)
  106   164           5.1471763644         140.0617894804      PI        B2 (3)
  107   112           5.1471763644         140.0617894804      PI        B1 (2)
  108   204           5.1587609045         140.3770208417      DE        A2 (4)
  109    43           5.1587609045         140.3770208420      DE        A1 (1)
  110   113           5.8290431288         158.6163274342      PI        B1 (2)
  111   165           5.8290431288         158.6163274342      PI        B2 (3)
  112    44           5.8935493350         160.3716305420     SG+        A1 (1)
  113   205           5.9025918761         160.6176905951      PI        A2 (4)
  114    45           5.9025918761         160.6176905951      PI        A1 (1)
  115   114           6.1474039640         167.2793661785      PH        B1 (2)
  116   166           6.1474039640         167.2793661785      PH        B2 (3)
  117    46           6.2303373718         169.5360989359     SG+        A1 (1)
  118   206           6.3089297013         171.6747049465      DE        A2 (4)
  119    47           6.3089297013         171.6747049465      DE        A1 (1)
  120   167           6.3315774639         172.2909818982      PI        B2 (3)
  121   115           6.3315774639         172.2909818982      PI        B1 (2)
  122   116           6.4456605352         175.3953400888      PH        B1 (2)
  123   168           6.4456605352         175.3953400888      PH        B2 (3)
  124   207           6.5968467938         179.5093273369      DE        A2 (4)
  125    48           6.5968467938         179.5093273371      DE        A1 (1)
  126    49           7.0761976082         192.5531261304     SG+        A1 (1)
  127   208           7.3942909336         201.2088855644      DE        A2 (4)
  128    50           7.3942909336         201.2088855644      DE        A1 (1)
  129   169           7.5211142379         204.6599231228      PI        B2 (3)
  130   117           7.5211142379         204.6599231228      PI        B1 (2)
  131    51           7.8171437860         212.7152966536     SG+        A1 (1)
  132    52           8.2901662403         225.5868920142     SG+        A1 (1)
  133   170           8.5248324717         231.9724848095      PI        B2 (3)
  134   118           8.5248324717         231.9724848095      PI        B1 (2)
  135   119          10.1226543730         275.4514291694      PI        B1 (2)
  136   171          10.1226543730         275.4514291694      PI        B2 (3)
  137    53          10.4844619682         285.2967143591     SG+        A1 (1)
  138   209          10.6014295585         288.4795643038      PI        A2 (4)
  139    54          10.6014295585         288.4795643038      PI        A1 (1)
  140   120          10.8905152304         296.3459853585      PH        B1 (2)
  141   172          10.8905152304         296.3459853586      PH        B2 (3)
  142   210          11.1463433606         303.3074226942      DE        A2 (4)
  143    55          11.1463433606         303.3074226942      DE        A1 (1)
  144    56          11.1719016049         304.0028978772     SG+        A1 (1)
  145   173          11.3797099836         309.6576513455      PI        B2 (3)
  146   121          11.3797099836         309.6576513455      PI        B1 (2)
  147    57          11.6795009685         317.8153787739     SG+        A1 (1)
  148   122          11.8550710694         322.5928841043      PH        B1 (2)
  149   174          11.8550710694         322.5928841043      PH        B2 (3)
  150   211          12.3045453170         334.8237001823      DE        A2 (4)
  151    58          12.3045453170         334.8237001823      DE        A1 (1)
  152   175          12.6677857254         344.7079742033      PI        B2 (3)
  153   123          12.6677857254         344.7079742033      PI        B1 (2)
  154   212          12.8871665720         350.6776305305      DE        A2 (4)
  155    59          12.8871665720         350.6776305306      DE        A1 (1)
  156    60          13.3636187434         363.6425532392     SG+        A1 (1)
  157   124          14.2494395735         387.7469634686      PI        B1 (2)
  158   176          14.2494395735         387.7469634687      PI        B2 (3)
  159    61          15.6585071822         426.0896424065     SG+        A1 (1)
  160    62          18.0600583323         491.4391715076     SG+        A1 (1)
  161   125          19.4374032566         528.9186323145      PI        B1 (2)
  162   177          19.4374032566         528.9186323146      PI        B2 (3)
  163    63          20.7178853219         563.7623207327     SG+        A1 (1)
  164   213          26.5509280722         722.4874833987      DE        A2 (4)
  165    64          26.5509280722         722.4874833988      DE        A1 (1)
  166   178          27.0561793143         736.2360686617      PI        B2 (3)
  167   126          27.0561793143         736.2360686618      PI        B1 (2)
  168    65          28.2947831093         769.9401914071     SG+        A1 (1)
  169   127          33.8029177716         919.8241555209      PI        B1 (2)
  170   179          33.8029177716         919.8241555212      PI        B2 (3)
  171    66          35.0498575188         953.7551110607     SG+        A1 (1)
  172    67          36.9013788499        1004.1375678721     SG+        A1 (1)
  173   214          47.1268509384        1282.3868093186      DE        A2 (4)
  174    68          47.1268509384        1282.3868093187      DE        A1 (1)
  175   128          47.7590633762        1299.5901843543      PI        B1 (2)
  176   180          47.7590633762        1299.5901843543      PI        B2 (3)
  177    69          48.6190180341        1322.9907402586     SG+        A1 (1)
  178    70          64.2595320409        1748.5907634697     SG+        A1 (1)
  179   181          66.8777493632        1819.8360788505      PI        B2 (3)
  180   129          66.8777493632        1819.8360788505      PI        B1 (2)
  181    71          67.8604834605        1846.5776331532     SG+        A1 (1)
  182   130          98.6824267323        2685.2853486561      PH        B1 (2)
  183   182          98.6824267323        2685.2853486561      PH        B2 (3)
  184    72          98.7063760001        2685.9370413629      DE        A1 (1)
  185   215          98.7063760001        2685.9370413629      DE        A2 (4)
  186   131          98.7773881868        2687.8693812008      PI        B1 (2)
  187   183          98.7773881868        2687.8693812008      PI        B2 (3)
  188    73          98.7886328977        2688.1753653414     SG+        A1 (1)
  189   132         103.2846937945        2810.5194021944      PH        B1 (2)
  190   184         103.2846937945        2810.5194021944      PH        B2 (3)
  191   216         103.3372276453        2811.9489209497      DE        A2 (4)
  192    74         103.3372276455        2811.9489209538      DE        A1 (1)
  193   185         103.3651626191        2812.7090702308      PI        B2 (3)
  194   133         103.3651626191        2812.7090702308      PI        B1 (2)
  195    75         103.4314320817        2814.5123539873     SG+        A1 (1)
  196    76         115.2003007186        3134.7595506489      DE        A1 (1)
  197   217         115.2003007186        3134.7595506489      DE        A2 (4)
  198   134         115.4465912304        3141.4614561924      PI        B1 (2)
  199   186         115.4465912304        3141.4614561924      PI        B2 (3)
  200    77         116.0711375219        3158.4562247829     SG+        A1 (1)
  201   135         117.0505154434        3185.1064528982      PI        B1 (2)
  202   187         117.0505154434        3185.1064528986      PI        B2 (3)
  203    78         118.1328840986        3214.5592013535     SG+        A1 (1)
  204    79         122.9644850809        3346.0337481203     SG+        A1 (1)
  205   218         198.5825139280        5403.7049230312      DE        A2 (4)
  206    80         198.5825139280        5403.7049230314      DE        A1 (1)
  207   188         198.9257041936        5413.0436049276      PI        B2 (3)
  208   136         198.9257041936        5413.0436049278      PI        B1 (2)
  209    81         199.3583418300        5424.8162735255     SG+        A1 (1)
  210    82         216.7357215092        5897.6788144621     SG+        A1 (1)
  211   137         225.2876462515        6130.3885174322      PI        B1 (2)
  212   189         225.2876462515        6130.3885174323      PI        B2 (3)
  213    83         226.0906473470        6152.2392881140     SG+        A1 (1)
  214   138         395.5082018283       10762.3253177939      PI        B1 (2)
  215   190         395.5082018283       10762.3253177948      PI        B2 (3)
  216    84         396.3947084990       10786.4483906979     SG+        A1 (1)
  217    85         509.4863915306       13863.8295370220     SG+        A1 (1)
  218    86         895.5683776877       24369.6544861747     SG+        A1 (1)


  VSCF finished.

 @CHECKOUT-I, Total execution time (CPU/WALL):       50.08/      13.79 seconds.
--executable xvscf finished with status     0 in       13.83 seconds (walltime).
 --invoking executable--
/nfs/workspaces/public/cfour_mpi/bin/xvtran
 @GETMEM-I,  Allocated    3814 MB of main memory.
  Full RHF integral transformation
  Transformation of IIII integrals :
  1 pass through the AO integral file was required.
     4601674 AO integrals were read.
     8815000 MO integrals were written to HF2.
  Transformation of IIJJ integrals :
  1 pass through the AO integral file was required.
    10405790 AO integrals were read.
    14631191 MO integrals were written to HF2.
  Transformation of IJIJ integrals :
  1 pass through the AO integral file was required.
    19745308 AO integrals were read.
    27507106 MO integrals were written to HF2.
  Transformation of IJKL integrals :
  1 pass through the AO integral file was required.
    14608430 AO integrals were read.
    18565851 MO integrals were written to HF2.
  Summary of active molecular orbitals: 
------------------------------------------------------------------------
 
  Index      Eigenvalue    Symmetry    Index      Eigenvalue    Symmetry
------------------------------------------------------------------------
     1       -20.6649010        1       110         4.2110006        2
     2       -11.3554597        1       111         4.2962787        2
     3        -1.5294433        1       112         4.7629135        2
     4        -0.8056048        1       113         5.1471764        2
     5        -0.5538890        1       114         5.8290431        2
     6        -0.6452267        2       115         6.1474040        2
     7        -0.6452267        3       116         6.3315775        2
     8         0.0603235        1       117         6.4456605        2
     9         0.0738763        1       118         7.5211142        2
    10         0.1566459        1       119         8.5248325        2
    11         0.2276494        1       120        10.1226544        2
    12         0.2280442        1       121        10.8905152        2
    13         0.3010691        1       122        11.3797100        2
    14         0.3916894        1       123        11.8550711        2
    15         0.5085752        1       124        12.6677857        2
    16         0.5339617        1       125        14.2494396        2
    17         0.6480840        1       126        19.4374033        2
    18         0.7687327        1       127        27.0561793        2
    19         0.7802419        1       128        33.8029178        2
    20         0.8728045        1       129        47.7590634        2
    21         0.8916868        1       130        66.8777494        2
    22         0.9156189        1       131        98.6824267        2
    23         1.2045102        1       132        98.7773882        2
    24         1.4789228        1       133       103.2846938        2
    25         1.5160557        1       134       103.3651626        2
    26         1.6669946        1       135       115.4465912        2
    27         1.7675069        1       136       117.0505154        2
    28         1.7703018        1       137       198.9257042        2
    29         2.1061924        1       138       225.2876463        2
    30         2.1420914        1       139       395.5082018        2
    31         2.1981572        1       140         0.0626775        3
    32         2.3165262        1       141         0.1437180        3
    33         2.3659008        1       142         0.1673599        3
    34         2.4890325        1       143         0.3214944        3
    35         2.9579112        1       144         0.3960388        3
    36         3.0185837        1       145         0.6230576        3
    37         3.4714314        1       146         0.7487559        3
    38         3.7258459        1       147         0.8244747        3
    39         3.9512543        1       148         0.8802131        3
    40         4.1760580        1       149         1.0792228        3
    41         4.2757359        1       150         1.4484373        3
    42         4.3867060        1       151         1.5521299        3
    43         4.5533978        1       152         1.8142218        3
    44         5.0009404        1       153         1.9639619        3
    45         5.1587609        1       154         2.2526079        3
    46         5.8935493        1       155         2.3269638        3
    47         5.9025919        1       156         2.3671721        3
    48         6.2303374        1       157         2.5999723        3
    49         6.3089297        1       158         2.8428445        3
    50         6.5968468        1       159         3.7539048        3
    51         7.0761976        1       160         4.0817283        3
    52         7.3942909        1       161         4.2110006        3
    53         7.8171438        1       162         4.2962787        3
    54         8.2901662        1       163         4.7629135        3
    55        10.4844620        1       164         5.1471764        3
    56        10.6014296        1       165         5.8290431        3
    57        11.1463434        1       166         6.1474040        3
    58        11.1719016        1       167         6.3315775        3
    59        11.6795010        1       168         6.4456605        3
    60        12.3045453        1       169         7.5211142        3
    61        12.8871666        1       170         8.5248325        3
    62        13.3636187        1       171        10.1226544        3
    63        15.6585072        1       172        10.8905152        3
    64        18.0600583        1       173        11.3797100        3
    65        20.7178853        1       174        11.8550711        3
    66        26.5509281        1       175        12.6677857        3
    67        28.2947831        1       176        14.2494396        3
    68        35.0498575        1       177        19.4374033        3
    69        36.9013788        1       178        27.0561793        3
    70        47.1268509        1       179        33.8029178        3
    71        48.6190180        1       180        47.7590634        3
    72        64.2595320        1       181        66.8777494        3
    73        67.8604835        1       182        98.6824267        3
    74        98.7063760        1       183        98.7773882        3
    75        98.7886329        1       184       103.2846938        3
    76       103.3372276        1       185       103.3651626        3
    77       103.4314321        1       186       115.4465912        3
    78       115.2003007        1       187       117.0505154        3
    79       116.0711375        1       188       198.9257042        3
    80       118.1328841        1       189       225.2876463        3
    81       122.9644851        1       190       395.5082018        3
    82       198.5825139        1       191         0.2276494        4
    83       199.3583418        1       192         0.5339617        4
    84       216.7357215        1       193         0.7687327        4
    85       226.0906473        1       194         0.8916868        4
    86       396.3947085        1       195         1.5160557        4
    87       509.4863915        1       196         1.7703018        4
    88       895.5683777        1       197         2.1061924        4
    89         0.0626775        2       198         2.1981572        4
    90         0.1437180        2       199         2.3659008        4
    91         0.1673599        2       200         3.0185837        4
    92         0.3214944        2       201         3.7258459        4
    93         0.3960388        2       202         4.1760580        4
    94         0.6230576        2       203         4.3867060        4
    95         0.7487559        2       204         5.1587609        4
    96         0.8244747        2       205         5.9025919        4
    97         0.8802131        2       206         6.3089297        4
    98         1.0792228        2       207         6.5968468        4
    99         1.4484373        2       208         7.3942909        4
   100         1.5521299        2       209        10.6014296        4
   101         1.8142218        2       210        11.1463434        4
   102         1.9639619        2       211        12.3045453        4
   103         2.2526079        2       212        12.8871666        4
   104         2.3269638        2       213        26.5509281        4
   105         2.3671721        2       214        47.1268509        4
   106         2.5999723        2       215        98.7063760        4
   107         2.8428445        2       216       103.3372276        4
   108         3.7539048        2       217       115.2003007        4
   109         4.0817283        2       218       198.5825139        4
------------------------------------------------------------------------
  -20.6649010294950       -11.3554596743953       -1.52944325945427     
 -0.805604825379820      -0.553889019861120      -0.645226742526260     
 -0.645226742526284       6.032354829822265E-002  7.387631504178947E-002
  0.156645889835168       0.227649446234420       0.228044195527895     
  0.301069091119838       0.391689402262112       0.508575172830117     
  0.533961684909671       0.648083961726199       0.768732723206954     
  0.780241898626508       0.872804488355403       0.891686816335517     
  0.915618879079099        1.20451017873505        1.47892277431219     
   1.51605572881989        1.66699464631910        1.76750690396355     
   1.77030182765273        2.10619238483518        2.14209143407333     
   2.19815720096520        2.31652619076329        2.36590076277905     
   2.48903252902249        2.95791118762655        3.01858374705046     
   3.47143137606096        3.72584590711839        3.95125429105754     
   4.17605797812412        4.27573591648837        4.38670597197011     
   4.55339776341362        5.00094039503728        5.15876090452660     
   5.89354933502012        5.90259187612912        6.23033737181912     
   6.30892970132705        6.59684679379646        7.07619760818087     
   7.39429093356718        7.81714378599306        8.29016624028912     
   10.4844619681889        10.6014295584756        11.1463433606331     
   11.1719016048710        11.6795009684774        12.3045453169553     
   12.8871665720086        13.3636187434412        15.6585071821996     
   18.0600583323368        20.7178853219464        26.5509280722125     
   28.2947831093036        35.0498575188453        36.9013788498559     
   47.1268509383736        48.6190180341421        64.2595320409062     
   67.8604834605076        98.7063760000859        98.7886328977083     
[...]
 Convergence information after     9 iterations: 
 Largest element of residual vector :  0.84410206E-05.
 Largest element of DIIS residual   :  0.46497258E-05.
 Convergence information after    10 iterations: 
 Largest element of residual vector :  0.46427908E-05.
 Largest element of DIIS residual   :  0.30828569E-05.
 Convergence information after    11 iterations: 
 Largest element of residual vector :  0.17474563E-05.
 Largest element of DIIS residual   :  0.70030314E-06.
 Convergence information after    12 iterations: 
 Largest element of residual vector :  0.71317542E-06.
 Largest element of DIIS residual   :  0.37996956E-06.
 Convergence information after    13 iterations: 
 Largest element of residual vector :  0.28347341E-06.
 Largest element of DIIS residual   :  0.21447281E-06.
 Convergence information after    14 iterations: 
 Largest element of residual vector :  0.16223825E-06.
 Largest element of DIIS residual   :  0.88023556E-07.
 Perturbed amplitude equations converged in    14 iterations.
  Dominant contributions to perturbed wavefunction:
    7    7  141   27   0.2032218606 ABAB
    7    7   27  141   0.2032218606 ABAB
    7    7  141   37   0.1954108691 ABAB
    7    7   37  141   0.1954108691 ABAB
    7    7  141   55   0.1750982250 ABAB
    7    7   55  141   0.1750982250 ABAB
    7    7  142   27   0.1709426690 ABAB
    7    7   27  142   0.1709426690 ABAB
    7    7  142   37   0.1623841438 ABAB
    7    7   37  142   0.1623841438 ABAB
    5    5  141   44   0.1444017086 ABAB
    5    5   44  141   0.1444017086 ABAB
    7    7  141   63   0.1368719244 ABAB
    7    7   63  141   0.1368719244 ABAB
    7    7  141   44   0.1353261174 ABAB
    7    7   44  141   0.1353261174 ABAB
    7    7  141   53  -0.1340352542 ABAB
    7    7   53  141  -0.1340352542 ABAB
    7    6   27   90   0.1338441400 ABAB
    6    7   90   27   0.1338441400 ABAB
  norm of converged amps    2.48023026829453     
 Starting iterative solution of the perturbed Lambda equations.
 The DIIS procedure is used to accelerate convergence.
 Convergence criterion is 10**(-7).
 Maximum number of iterations is 100.
 Convergence information after     1 iterations: 
 Largest element of residual vector : -0.67839094E-01.
 Largest element of DIIS residual   : -0.67839094E-01.
 Convergence information after     2 iterations: 
 Largest element of residual vector :  0.73698630E-02.
 Largest element of DIIS residual   :  0.52272264E-02.
 Convergence information after     3 iterations: 
 Largest element of residual vector : -0.42085972E-02.
 Largest element of DIIS residual   : -0.36467262E-02.
 Convergence information after     4 iterations: 
 Largest element of residual vector : -0.25958438E-02.
 Largest element of DIIS residual   : -0.20417709E-02.
 Convergence information after     5 iterations: 
 Largest element of residual vector : -0.15005187E-02.
 Largest element of DIIS residual   : -0.68857658E-03.
 Convergence information after     6 iterations: 
 Largest element of residual vector : -0.48357356E-03.
 Largest element of DIIS residual   :  0.11390195E-03.
 Convergence information after     7 iterations: 
 Largest element of residual vector : -0.91054358E-04.
 Largest element of DIIS residual   : -0.43689808E-04.
 Convergence information after     8 iterations: 
 Largest element of residual vector : -0.18927466E-04.
 Largest element of DIIS residual   :  0.17938972E-04.
 Convergence information after     9 iterations: 
 Largest element of residual vector :  0.69893773E-05.
 Largest element of DIIS residual   :  0.38909863E-05.
 Convergence information after    10 iterations: 
 Largest element of residual vector :  0.37807445E-05.
 Largest element of DIIS residual   :  0.26207729E-05.
 Convergence information after    11 iterations: 
 Largest element of residual vector :  0.13938664E-05.
 Largest element of DIIS residual   :  0.64958731E-06.
 Convergence information after    12 iterations: 
 Largest element of residual vector :  0.63703923E-06.
 Largest element of DIIS residual   :  0.42747045E-06.
 Convergence information after    13 iterations: 
 Largest element of residual vector :  0.31423865E-06.
 Largest element of DIIS residual   :  0.25344909E-06.
 Convergence information after    14 iterations: 
 Largest element of residual vector :  0.19034232E-06.
 Largest element of DIIS residual   :  0.10020602E-06.
 Convergence information after    15 iterations: 
 Largest element of residual vector :  0.70258680E-07.
 Largest element of DIIS residual   :  0.31858486E-07.
 Perturbed Lambda equations converged in    15 iterations.
  Dominant contributions to perturbed wavefunction:
    7    7  141   27   0.1917086595 ABAB
    7    7   27  141   0.1917086595 ABAB
    7    7  141   37   0.1852732507 ABAB
    7    7   37  141   0.1852732507 ABAB
    7    7  141   55   0.1639364470 ABAB
    7    7   55  141   0.1639364470 ABAB
    7    7  142   27   0.1629448080 ABAB
    7    7   27  142   0.1629448080 ABAB
    7    7  142   37   0.1554285547 ABAB
    7    7   37  142   0.1554285547 ABAB
    5    5  141   44   0.1385697715 ABAB
    5    5   44  141   0.1385697715 ABAB
    7    7  141   63   0.1296099192 ABAB
    7    7   63  141   0.1296099192 ABAB
    7    7  141   53  -0.1263025804 ABAB
    7    7   53  141  -0.1263025804 ABAB
    7    7  141   44   0.1254359983 ABAB
    7    7   44  141   0.1254359983 ABAB
    7    6   27   90   0.1244713660 ABAB
    6    7   90   27   0.1244713660 ABAB
        The DBOC first-order density matrix is being calculated 
             (Symmetry block 3, perturbation   2)
 term   7.22389055107917     
 final tnorm  0.888817048792433     
  norm contr. I: |<0|L dT/dx|0>|^2   0.000000000000000E+000
  norm contr. II: <0|[nabla(1+L)e-T][nabla e^T]|0>   7.22389055107917     
  total norm contribution   7.22389055107917     
 oo  1.079351264384143E-002
 vv  -48.2015966599132     
 vo  3.399095918409679E-002
  Correlated perturbed 1-el contribution to DBOC  -48.1568121880853       cm**-1
  SUM_I |dc_I/dx|^2 contribution to DBOC   24.1667945018351       cm**-1
 
 
  The total diagonal Born-Oppenheimer correction (DBOC) is:      0.0038719487 a.u.
  The total diagonal Born-Oppenheimer correction (DBOC) is:        849.794505 cm-1
 
 Total CC energy including DBOC  -113.281943043034     
 First-order density matrix is being calculated  (Symmetry block 3, perturbation   2)
 Calculation of the contributions of <pq||rs> to dI(i,j)/dx required   3.7 seconds.
 Calculation of the contributions of <pq||rs> to dI(a,b)/dx required  16.6 seconds.
 Calculation of the contributions of <pq||rs> to dI(i,a)/dx required   9.6 seconds.
 First-order Z-vector equations are solved for 1 perturbation.
 Convergence reached after  18 iterations.
        U*G(pq,rs) contribution is being calculated
             (Symmetry block 3, perturbation   2)

 CCSD contribution to force constants 

        0.0000000000        0.0000000000        0.0000000000
        0.0000000000        0.0000000000        0.0000000000
        0.0000000000        0.0000000000        0.0000000000
        0.0000000000        0.0000000000        0.0000000000
        0.0000000000        0.0000000000        0.0000000000
        0.0000000000        0.0000000000        0.0000000000
        0.0000000000        0.0000000000        0.0000000000
        0.0000000000        0.0000000000        0.0000000000
        0.0000000000        0.0000000000        0.0000000000
        0.0000000000        0.0000000000        0.0000000000
        0.0000000000        0.0000000000        0.0000000000
        0.0000000000       -2.4937565110        2.4937565110

 CCSD contribution to dipole derivatives 

        0.0000000000        0.0000000000        0.0000000000
        0.0000000000        0.0000000000        0.0000000000
        0.0000000000        0.0000000000        0.0000000000
        0.0000000000        0.0000000000       -0.0439501912
        0.0000000000        0.0000000000        0.0000000000
        0.0000000000        0.0000000000        0.0000000000
 @CHECKOUT-I, Total execution time (CPU/WALL):     1203.70/     495.95 seconds.
--executable xsdcc finished with status     0 in      496.22 seconds (walltime).
 --invoking executable--
/nfs/workspaces/public/cfour_mpi/bin/xanti
 @GETMEM-I,  Allocated    3814 MB of main memory.
 CCSD MO derivative gammas will be sorted to Mulliken order.
 @CHECKOUT-I, Total execution time (CPU/WALL):       13.47/      23.76 seconds.
--executable xanti finished with status     0 in       23.91 seconds (walltime).
 --invoking executable--
/nfs/workspaces/public/cfour_mpi/bin/xbcktrn
 @GETMEM-I,  Allocated    3814 MB of main memory.
 CCSD MO derivative gammas will be transformed to the AO basis.
 @CHECKOUT-I, Total execution time (CPU/WALL):       36.34/      14.98 seconds.
--executable xbcktrn finished with status     0 in       15.05 seconds (walltime).
 --invoking executable--
/nfs/workspaces/public/cfour_mpi/bin/xvdint
 @GETMEM-I,  Allocated    3814 MB of main memory.
 One- and two-electron integral derivatives are calculated
 for RHF-CC/MBPT hessians and dipole derivatives.
 Spherical gaussians are used.
  magnet F F
                    8722  records have been written to the Sort file.
  Total length of Sort file :             178609116  words.
 Evaluation of 2el integral derivatives

                      Two-electron integral gradient
                      ------------------------------

                         C #1 z     0.0000000000
                         O #2 z     0.0000000000


 C #1       0.0000000000           -0.6977764377            0.0000000000
 O #2       0.0000000000            0.6977764377            0.0000000000


 Evaluation of 2e integral derivatives required  347.99 seconds.
  contribution to Hessian
        0.0000000000        0.0000000000        0.0000000000
        0.0000000000       -0.6977764377        0.6977764377
 @CHECKOUT-I, Total execution time (CPU/WALL):      347.96/      72.81 seconds.
--executable xvdint finished with status     0 in       73.01 seconds (walltime).
 --invoking executable--
/nfs/workspaces/public/cfour_mpi/bin/xanti
 @GETMEM-I,  Allocated    3814 MB of main memory.
 CCSD MO gammas will be sorted to Mulliken order.
 @CHECKOUT-I, Total execution time (CPU/WALL):       15.20/      60.50 seconds.
--executable xanti finished with status     0 in       60.66 seconds (walltime).
 --invoking executable--
/nfs/workspaces/public/cfour_mpi/bin/xbcktrn
 @GETMEM-I,  Allocated    3814 MB of main memory.
 CCSD MO gammas will be transformed to the AO basis.
 @CHECKOUT-I, Total execution time (CPU/WALL):       49.69/      10.25 seconds.
--executable xbcktrn finished with status     0 in       10.32 seconds (walltime).
 --invoking executable--
/nfs/workspaces/public/cfour_mpi/bin/xvdint
 @GETMEM-I,  Allocated    3814 MB of main memory.
 One- and two-electron integral derivatives are calculated
 for RHF-CC/MBPT hessians and dipole derivatives.
 Spherical gaussians are used.
  magnet F F

                     Kinetic energy integral gradient
                     --------------------------------

                         C #1 z    -1.5409772385
                         O #2 z     1.5409772385


 C #1       0.0000000000            0.0000000000           -1.5409772385
 O #2       0.0000000000            0.0000000000            1.5409772385



                   Nuclear attraction integral gradient
                   ------------------------------------

                         C #1 z    23.9860289667
                         O #2 z   -23.9860289667


 C #1       0.0000000000            0.0000000000           23.9860289667
 O #2       0.0000000000            0.0000000000          -23.9860289667



                      Reorthonormalization gradient
                      -----------------------------

                         C #1 z     0.0000000000
                         O #2 z     0.0000000000


 C #1       0.0000000000            0.0000000000            0.0000000000
 O #2       0.0000000000            0.0000000000            0.0000000000



                     Kinetic energy integral Hessian
                     -------------------------------


           Symmetry 1

           C #1 z      O #2 z

 C #1 z    1.087466
 O #2 z   -1.087466    1.087466


           Symmetry 2

           C #1 x      O #2 x

 C #1 x   -2.089035
 O #2 x    2.089035   -2.089035


           Symmetry 3

           C #1 y      O #2 y

 C #1 y   -2.089035
 O #2 y    2.089035   -2.089035




           C #1 x      C #1 y      C #1 z      O #2 x      O #2 y      O #2 z

 C #1 x   -2.089035
 C #1 y    0.000000   -2.089035
 C #1 z    0.000000    0.000000    1.087466

 O #2 x    2.089035    0.000000    0.000000   -2.089035
 O #2 y    0.000000    2.089035    0.000000    0.000000   -2.089035
 O #2 z    0.000000    0.000000   -1.087466    0.000000    0.000000    1.087466




                   Nuclear attraction integral Hessian
                   -----------------------------------


           Symmetry 1

           C #1 z      O #2 z

 C #1 z  -13.363987
 O #2 z   13.363987  -13.363987


           Symmetry 2

           C #1 x      O #2 x

 C #1 x   21.840427
 O #2 x  -21.840427   21.840427


           Symmetry 3

           C #1 y      O #2 y

 C #1 y   21.840427
 O #2 y  -21.840427   21.840427




           C #1 x      C #1 y      C #1 z      O #2 x      O #2 y      O #2 z

 C #1 x   21.840427
 C #1 y    0.000000   21.840427
 C #1 z    0.000000    0.000000  -13.363987

 O #2 x  -21.840427    0.000000    0.000000   21.840427
 O #2 y    0.000000  -21.840427    0.000000    0.000000   21.840427
 O #2 z    0.000000    0.000000   13.363987    0.000000    0.000000  -13.363987




                Highest order reorthonormalization Hessian
                ------------------------------------------


           Symmetry 1

           C #1 z      O #2 z

 C #1 z    0.000000
 O #2 z    0.000000    0.000000


           Symmetry 2

           C #1 x      O #2 x

 C #1 x    0.000000
 O #2 x    0.000000    0.000000


           Symmetry 3

           C #1 y      O #2 y

 C #1 y    0.000000
 O #2 y    0.000000    0.000000




           C #1 x      C #1 y      C #1 z      O #2 x      O #2 y      O #2 z




                Electronic contributions to dipole moment
                -----------------------------------------

                               au             Debye

                    z     -0.91155187     -2.31693414

  Conversion factor used: 1 a.u. =   2.54174691 Debye 



   Electronic contributions to static part of dipole moment derivatives
   --------------------------------------------------------------------


                     Total dipole moment derivatives
                     -------------------------------


           Symmetry 1
                              Ez

               C #1 z    -5.71994504
               O #2 z    -8.28005496

           Symmetry 2
                              Ex

               C #1 x    -5.80596163
               O #2 x    -8.19403837

           Symmetry 3
                              Ey

               C #1 y    -5.80596163
               O #2 y    -8.19403837



                       Ex          Ey          Ez

      C #1    x   -5.805962    0.000000    0.000000
      C #1    y    0.000000   -5.805962    0.000000
      C #1    z    0.000000    0.000000   -5.719945

      O #2    x   -8.194038    0.000000    0.000000
      O #2    y    0.000000   -8.194038    0.000000
      O #2    z    0.000000    0.000000   -8.280055

 Evaluation of 1e integral derivatives required    1.70 seconds.
                    8815  records have been written to the Sort file.
  Total length of Sort file :             180513570  words.
 Evaluation of 2el integral derivatives

                      Two-electron integral gradient
                      ------------------------------

                         C #1 z   -11.2597195097
                         O #2 z    11.2597195097


 C #1       0.0000000000            0.0000000000          -11.2597195097
 O #2       0.0000000000            0.0000000000           11.2597195097


 Evaluation of 2e integral derivatives required  718.25 seconds.

                            Molecular gradient
                            ------------------

                         C #1 z     0.4169789006
                         O #2 z    -0.4169789006


 C #1       0.0000000000            0.0000000000            0.4169789006
 O #2       0.0000000000            0.0000000000           -0.4169789006


  Molecular gradient norm 0.590E+00

                            Molecular hessian
                            -----------------


           Symmetry 1

           C #1 z      O #2 z

 C #1 z   68.015499
 O #2 z  -68.015499   68.015499


           Symmetry 2

           C #1 x      O #2 x

 C #1 x    3.252473
 O #2 x   -3.252473    3.252473


           Symmetry 3

           C #1 y      O #2 y

 C #1 y    3.252473
 O #2 y   -3.252473    3.252473




           C #1 x      C #1 y      C #1 z      O #2 x      O #2 y      O #2 z

 C #1 x    3.252473
 C #1 y    0.000000    3.252473
 C #1 z    0.000000    0.000000   68.015499

 O #2 x   -3.252473    0.000000    0.000000    3.252473
 O #2 y    0.000000   -3.252473    0.000000    0.000000    3.252473
 O #2 z    0.000000    0.000000  -68.015499    0.000000    0.000000   68.015499




                           Total dipole moment
                           -------------------

                               au             Debye

                    z     -0.06737054     -0.17123886

  Conversion factor used: 1 a.u. =   2.54174691 Debye 



                     Total dipole moment derivatives
                     -------------------------------


           Symmetry 1
                              Ez

               C #1 z     0.71071827
               O #2 z    -0.71071827

           Symmetry 2
                              Ex

               C #1 x    -0.03276022
               O #2 x     0.03276022

           Symmetry 3
                              Ey

               C #1 y    -0.03276022
               O #2 y     0.03276022



                       Ex          Ey          Ez

      C #1    x   -0.032760    0.000000    0.000000
      C #1    y    0.000000   -0.032760    0.000000
      C #1    z    0.000000    0.000000    0.710718

      O #2    x    0.032760    0.000000    0.000000
      O #2    y    0.000000    0.032760    0.000000
      O #2    z    0.000000    0.000000   -0.710718

 @CHECKOUT-I, Total execution time (CPU/WALL):      719.95/     122.10 seconds.
--executable xvdint finished with status     0 in      122.28 seconds (walltime).
 --invoking executable--
/nfs/workspaces/public/cfour_mpi/bin/xjoda
  @GTFLGS-I, Hessian will be transformed to curvilinear coordinates.
  @GTFLGS-I, Hessian will be transformed to curvilinear coordinates.
  igrd and ihes are                      0                     1
  gradient from JOBARC 
   0.000000000000000   0.000000000000000   0.416978900607701
   0.000000000000000   0.000000000000000  -0.416978900607701
 
  @PROJFCM-I, Projecting force constant matrix onto totally symmetric subspace.
  Largest difference between matrix elements of symmetrized
  and unsymmetrized FCM :    -0.6869615987E-11.
  read isotopes from ZMAT file 
 
  Summary of diagonal Born-Oppenheimer correction at the correlated level
  The total diagonal Born-Oppenheimer correction (DBOC) is:      0.0038719487 a.u.
  The total diagonal Born-Oppenheimer correction (DBOC) is:        849.794505 cm-1
  The total diagonal Born-Oppenheimer correction (DBOC) is:            10.166 kJ/mole
  hellooooooo 
  readis is  F
 
 @CHECKOUT-I, Total execution time (CPU/WALL):        0.04/       0.12 seconds.
--executable xjoda finished with status     0 in        0.18 seconds (walltime).
  The final electronic energy is      -113.281943043033962 a.u. 
  This computation required                         4400.42 seconds (walltime).
