 --invoking executable--
/nfs/workspaces/public/cfour_mpi/bin/xjoda


   *************************************************************************
         <<<     CCCCCC     CCCCCC   |||     CCCCCC     CCCCCC   >>>
       <<<      CCC        CCC       |||    CCC        CCC         >>>
      <<<      CCC        CCC        |||   CCC        CCC            >>>
    <<<        CCC        CCC        |||   CCC        CCC              >>>
      <<<      CCC        CCC        |||   CCC        CCC            >>>
       <<<      CCC        CCC       |||    CCC        CCC         >>>
         <<<     CCCCCC     CCCCCC   |||     CCCCCC     CCCCCC   >>>
   *************************************************************************

     ****************************************************************
     * CFOUR Coupled-Cluster techniques for Computational Chemistry *
     ****************************************************************
 

   Department of Chemistry                Institut fuer Physikalische Chemie
   University of Florida                  Universitaet Mainz
   Gainesville, FL 32611, USA             D-55099 Mainz, Germany

   Department of Chemistry                Fakultaet fuer Chemie und Biowiss.
   Johns Hopkins University               Karlsruher Institut fuer Technologie
   Baltimore, MD 21218, USA               D-76131 Karlsruhe, Germany

   Department of Chemistry                Department of Physical Chemistry
   Southern Methodist University          Eotvos Lorand University
   Dallas, TX 75275, USA                  H-1053 Budapest, Hungary

 
                       Version 2.1
 
                     vincent.theory.phys.ucl.ac.uk                     
                     Mon  3 Mar 04:35:39 GMT 2025                      
                     integer*8 version is running
 
********************************************************************************
*                          Input from ZMAT file                                *
********************************************************************************
Carbon Monoxide DBOC calculation                                                
C                                                                               
O 1 r                                                                           
                                                                                
r=1.5206896551724138                                                            
                                                                                
                                                                                
*CFOUR(CALC=CCSD,BASIS=AUG-PCVQZ,SCF_CONV=10                                    
CC_CONV=14,DBOC=ON,MEMORY=500000000                                             
ZFIELD=-200)                                                                    
                                                                                
%isotopes                                                                       
12                                                                              
18                                                                              
********************************************************************************
  @GTFLGS-I, Hessian will be transformed to curvilinear coordinates.
    -------------------------------------------------------------------
                    CFOUR Control Parameters 
    -------------------------------------------------------------------
        External           Internal           Value            Units
          Name               Name
    -------------------------------------------------------------------
       ABCDTYPE             IABCDT         STANDARD    [  0]    ***   
       ANHARMONIC           IANHAR         OFF         [  0]    ***   
       ANH_ALGORIT          IANALG         STANDARD    [  0]    ***   
       ANH_DERIVAT          IANDER         SECOND      [  1]    ***   
       ANH_MODE             ANHMOD         VIBRATION   [  0]    ***   
       ANH_STEPSIZ          ICUBST             50000          x 10-6  
       ANH_SYMMETR          IANHSM         ABELIAN     [  0]    ***   
       AO_LADDERS           IAOLAD         SINGLEPASS  [  1]    ***   
       AV_SCF               IAVSCF         OFF         [  0]    ***   
       BASIS                IBASIS         AUG-PCVQZ   [ 52]    ***   
       BOTHVECTORS          BOTHVC         OFF         [  0]    ***   
       BOX_POTENT           IPIAB          OFF         [  0]    ***   
       BREIT                IBREIT         OFF         [  0]    ***   
       BRUCK_CONV           IBRTOL          10D-  4             ***   
       BRUECKNER            IBRKNR         OFF         [  0]    ***   
       BUFFERSIZE           IBUFFS              4096            ***   
       CACHE_RECS           ICHREC             10               ***   
       CALCLEVEL            ICLLVL         CCSD        [ 10]    ***   
       CCORBOPT             ICCORB         OFF         [  0]  x 0.01  
       CC_CONV              ICCCNV          10D- 14             ***   
       CC_EXPORDER          ICCEOR              5               ***   
       CC_EXTRAPOL          ICCEXT         DIIS        [  1]    ***   
       CC_GUESS             ICCGES         MP2         [  0]    ***   
       CC_MAXCYC            ICCCYC            100              cycles 
       CC_PROGRAM           ICCPRO         VCC         [  0]    ***   
       CHARGE               ICHRGE              0               ***   
       CHOLESKY             ICHOLE         OFF         [  0]    ***   
       CIS_CONV             ICISTL              5               ***   
       COMM_SIZE            IPSIZE            ***               ***   
       CONSTANT             ICONST         OLD         [  1]    ***   
       CONTINUUM            ICONTU         NONE        [  0]    ***   
       CONTRACTION          ICNTYP         GENERAL     [  1]    ***   
       COORDINATES          ICOORD         INTERNAL    [  0]    ***   
       CPHF_CONVER          ICPHFT          10D- 16             ***   
       CPHF_MAXCYC          ICPHFC             64              cycles 
       CUBIC                ICUBIC         OFF         [  0]    ***   
       CURVILINEAR          ICURVY         ON          [  1]    ***   
       DBOC                 IDBOC          ON          [  1]    ***   
       DCT                  IDCT           OFF         [  0]    ***   
       DERIV_LEV            IDRLVL         SECOND      [  2]    ***   
       DEVMEM_SIZE          IDVMEM          50000000           MByte  
       DIAG_MRCC            IEOMST          10D-  0             ***   
       DIFF_TYPE            IDIFTY         RELAXED     [  0]    ***   
       DIRECT               IDIRCT         OFF         [  0]    ***   
       DROPMO               IDRPMO      NONE         
       ECP                  IECP           OFF         [  0]    ***   
       EIGENVECTOR          IVEC                1               ***   
       EL_ANHARM            IELANH         OFF         [  0]    ***   
       EOMFOLLOW            IEOMSR         ENERGY      [  0]    ***   
       EOMIP                IEOMIP         OFF         [  0]    ***   
       EOMLEVEL             HBARFM         SAME        [  0]    ***   
       EOM_MRCC             IMRCCE         NEW         [  1]    ***   
       EOM_NONIT            EOMNON         OFF         [  0]    ***   
       EOM_NSING            IEOMSI          10D-  0             ***   
       EOM_NSTATES          IMRCCD         DAVIDSON    [  0]    ***   
       EOM_NTRIP            IEOMTR          10D-  0             ***   
       EOM_ORDER            IEXORD         ENERGY      [  0]    ***   
       EOM_PROPSTA          IEOMST              0               ***   
       ESTATE_CONV          IEXTOL          10D-  5             ***   
       ESTATE_DIAG          IEXDIG         ITERATIVE   [  0]    ***   
       ESTATE_LOCK          IESLOC         ON          [  1]    ***   
       ESTATE_MAXC          IEXMXC             40               ***   
       ESTATE_PROP          IEXPRP         OFF         [  0]    ***   
       EVAL_HESS            IRECAL              0            # of cyc.
       EXCITATION           IEXCIT              0               ***   
       EXCITE               IEXCIT         NONE        [  0]    ***   
       EXTERN_POT           IEXPOT         OFF         [  0]    ***   
       FCGRADNEW            IFCGNW         OFF         [  0]    ***   
       FC_FIELD             IFINFC              0             x 10-6  
       FD_CALTYPE           IFDCAL         GRADONLY    [  0]    ***   
       FD_PROJECT           IFDPRJ         OFF         [  1]    ***   
       FD_STEPSIZE          IDISFD              0            10-4 bohr
       FD_USEGROUP          IFDGRP         FULL        [  0]    ***   
       FILE_RECSIZ          IFLREC              4096           words  
       FINITE_PERT          IFIPER              0             x 10-6  
       FIXGEOM              IFIXGM         OFF         [  0]    ***   
       FOCK                 IFOCK          AO          [  1]    ***   
       FREQ_ALGORI          IVIALG         STANDARD    [  0]    ***   
       FROZEN_CORE          IFROCO         OFF         [  0]    ***   
       GAMMA_ABCD           IGABCD         STORE       [  0]    ***   
       GAMMA_ABCI           IGABCI         STORE       [  0]    ***   
       GENBAS_1             IGNBS1              0               ***   
       GENBAS_2             IGNBS2              0               ***   
       GENBAS_3             IGNBS3              0               ***   
       GENBAS_4             IGNBS4              0               ***   
       GEO_CONV             ICONTL              5              H/bohr 
       GEO_MAXCYC           IOPTCY             50               ***   
       GEO_MAXSTEP          IMXSTP            300            millibohr
       GEO_METHOD           INR            SINGLE_POINT[  5]    ***   
       GIAO                 IGIAO          OFF         [  1]    ***   
       GIMIC                IGIMIC         OFF         [  0]    ***   
       GRID                 IGRID          OFF         [  0]    ***   
       GRID_ALGO            IGALGO         SERIAL      [  0]    ***   
       GUESS                IGUESS         MOREAD      [  0]    ***   
       HBAR                 IHBAR          OFF         [  0]    ***   
       HESS_TYPE            IHESTP         SCF         [  0]    ***   
       HF2_FILE             IHF2Fl         USE         [  1]    ***   
       HFSTABILITY          ISTABL         OFF         [  0]    ***   
       INCORE               INCORE         OFF         [  0]    ***   
       INPUT_MRCC           IMRCC          ON          [  1]    ***   
       INTEGRALS            INTTYP         VMOL        [  1]    ***   
       JODA_PRINT           IJPRNT              0               ***   
       KEYWORD_OUT          IDMPKW         NO          [  0]    ***   
       LINDEP_TOL           ILINDP              8               ***   
       LINEQ_CONV           IZTACN          10D-  7           cycles  
       LINEQ_EXPOR          ILMAXD              5               ***   
       LINEQ_MAXCY          ILMAXC            100               ***   
       LINEQ_TYPE           ILTYPE         DIIS        [  1]    ***   
       LOCK_ORBOCC          ILOCOC         OFF         [  0]    ***   
       MEMORY_SIZE          IMEMSZ         500000000           words  
       MEM_UNIT             IMEMU          INTEGERWORDS[  0]    ***   
       MRCC                 IMRCCC         OFF         [  0]    ***   
       MULTIPLICTY          IMULTP              1               ***   
       NACOUPLING           IVCOUP         OFF         [  0]    ***   
       NEGEVAL              IDIE           ABORT       [  0]    ***   
       NEWNORM              INEWNO         OFF         [  0]    ***   
       NON-HF               INONHF         OFF         [  0]    ***   
       NTOP_TAMP            ITOPT2             15               ***   
       NUC_MODEL            INUCMO         POINT       [  0]    ***   
       OCCUPATION           IOCCU   ESTIMATED BY SCF 
       OPEN-SHELL           IOPEN          SPIN-ORBITAL[  0]    ***   
       OPTVIB               IOPTVB         OFF         [  0]    ***   
       ORBITALS             IORBTP         STANDARD    [  0]    ***   
       PARALLEL             IPARAL         ON          [  1]    ***   
       PARA_INT             IPINTS         ON          [  1]    ***   
       PARA_PRINT           IPPRIN              0               ***   
       PERT_ORB             IPTORB         STANDARD    [  0]    ***   
       POINTS               IGRDFD              0               ***   
       PRINT                IPRNT               0               ***   
       PROPS                IPROPS         OFF         [  0]    ***   
       PROP_INTEGR          IINTYP         INTERNAL    [  0]    ***   
       PSI                  IPSI           OFF         [  0]    ***   
       QC_ALG               IQCALG         FLM         [  0]    ***   
       QC_LINALG            IQCLIN         TRIDIAG     [  2]    ***   
       QC_MAXCYC            IQCMAX          10D-100           cycles  
       QC_MAXSCFCY          IQCMSC          10D- 15           cycles  
       QC_RTRUST            IQCRTR          10D-  0           x 10-3  
       QC_SKIPSCF           IQCSKI         OFF         [  0]    ***   
       QC_START             IQCSTA          10D-  1             ***   
       QRHFGUESS            IQGUES         OFF         [  0]    ***   
       QUARTIC              IQUART         OFF         [  0]    ***   
       RAMAN_INT            IRAMIN         OFF         [  0]    ***   
       RAMAN_ORB            IRAMRE         UNRELAXED   [  0]    ***   
       RDO                  IRDOFM         ON          [  1]    ***   
       REDUCE_REPR          REDREP         Ir          [  0]    ***   
       REFERENCE            IREFNC         RHF         [  0]    ***   
       RELATIVIST           IRELAT         OFF         [  0]    ***   
       RELAX_DENS           IRDENS         ON          [  1]    ***   
       RESET_FLAGS          IRESET         OFF         [  0]    ***   
       RESTART_CC           ICCRES         OFF         [  0]    ***   
       ROT_EVEC             ROTVEC              0               ***   
       SAVE_INTS            ISVINT         OFF         [  0]    ***   
       SCALE_ON             ISTCRT              0               ***   
       SCF_CONV             ISCFCV          10D- 10             ***   
       SCF_DAMPING          IDAMP               0             x 10-3  
       SCF_EXPORDE          IRPPOR              6               ***   
       SCF_EXPSTAR          IRPPLS              8               ***   
       SCF_EXTRAPO          IRPP           ON          [  1]    ***   
       SCF_MAXCYC           ISCFCY            150              cycles 
       SCF_NOSTOP           ISCFST         OFF         [  0]    ***   
       SCF_PRINT            ISCFPR              0               ***   
       SCF_PROG             ISCFPR         SCF         [  0]    ***   
       SD_FIELD             IFINSD              0             x 10-6  
       SOPERT               IPERSO         OFF         [  0]    ***   
       SPHERICAL            IDFGHI         ON          [  1]    ***   
       SPINORBIT            ISOCAL         OFF         [  0]    ***   
       SPINROTATIO          ISRCON         OFF         [  0]    ***   
       SPIN_FLIP            ISPFLP         OFF         [  0]    ***   
       SPIN_ORBIT           ISPORB         OFF         [  0]    ***   
       SPIN_SCAL            ISCSMP         OFF         [  0]    ***   
       STEEPSCALE           ISTPSC              1000          x 10-3  
       SUBGROUP             ISUBGP         DEFAULT     [  0]    ***   
       SUBGRPAXIS           ISBXYZ         X           [  0]    ***   
       SYMMETRY             ISYM           ON          [  0]    ***   
       SYM_CHECK            ISYMCK         OVERRIDE    [  1]    ***   
       T3_EXTRAPOL          IT3EXT         OFF         [  0]    ***   
       T4_EXTRAPOL          IT4EXP         OFF         [  0]    ***   
       TAMP_SUM             IEVERY              5               ***   
       TESTSUITE            ITESTS         OFF         [  0]    ***   
       THERMOCH             ITHERM         OFF         [  0]    ***   
       TOL_CHOLESK          ITOLCH          10D-  4             ***   
       TRANGRAD             IRESRM         OFF         [  0]    ***   
       TRANS_INV            ITRAIN         IGNORE      [  1]    ***   
       TREAT_PERT           ITREAT         SIMULTANEOUS[  0]    ***   
       TRIP_ALGORI          ITRALG         NORMAL      [  0]    ***   
       UIJ_THRESHO          IUIJTH              1               ***   
       UNITS                IUNITS         ANGSTROM    [  0]    ***   
       UNOS                 IUNOS          OFF         [  0]    ***   
       UPDATE_HESS          IHUPDT         ON          [  1]    ***   
       VIBPHASE             ISETPH         STANDARD    [  0]    ***   
       VIBRATION            IVIB           ANALYTIC    [  1]    ***   
       VIB_ALGORIT          IGEALG         STANDARD    [  0]    ***   
       VNATORB              IVNORB         OFF         [  0]    ***   
       VTRAN                IVTRAN         FULL/PARTIAL[  0]    ***   
       XFIELD               IXEFLD              0             x 10-6  
       XFORM_TOL            IXFTOL          10D- 11             ***   
       YFIELD               IYEFLD              0             x 10-6  
       ZFIELD               IZEFLD            ***             x 10-6  
       ZSCALE_EXP           IZEXPS         OFF         [  0]    ***   
    -------------------------------------------------------------------
   2 entries found in Z-matrix 
   Job Title : Carbon Monoxide DBOC calculation                                                
   There are  1 unique internal coordinates.
   Of these,  0 will be optimized.
   User supplied Z-matrix: 
--------------------------------------------------------------------------------
       SYMBOL    BOND      LENGTH    ANGLE     ANGLE     DIHED     ANGLE
                  TO      (ANGST)    WRT      (DEG)      WRT      (DEG)
--------------------------------------------------------------------------------
        C    
        O          1         r    
                  *Initial values for internal coordinates* 
                      Name             Value
                        r               1.5206896552
--------------------------------------------------------------------------------
  read isotopes from ZMAT file 
   Rotational constants (in cm-1): 
          1.0124905532             1.0124905532
   Rotational constants (in MHz): 
      30353.7074175086         30353.7074175086
********************************************************************************
   The full molecular point group is CXv .
   The largest Abelian subgroup of the full molecular point group is C2v .
   The computational point group is C2v .
********************************************************************************
--------------------------------------------------------------------------------
   Analysis of internal coordinates specified by Z-matrix 
--------------------------------------------------------------------------------
   *The nuclear repulsion energy is   16.703277170068027 a.u.
   *There is   1 degree of freedom within the tot. symm. molecular subspace.
   *Z-matrix requests optimization of   0 coordinates.
   *The optimization is constrained.
   *The following   1 parameters can have non-zero 
    derivatives within the totally symmetric subspace:
             r    [ 1]
   *The following   0 parameters are to be optimized:

   *The following coordinates must be varied in an  unconstrained optimization.
             r    [ 1]
--------------------------------------------------------------------------------


 ----------------------------------------------------------------
         Coordinates used in calculation (QCOMP) 
 ----------------------------------------------------------------
 Z-matrix   Atomic            Coordinates (in bohr)
  Symbol    Number           X              Y              Z
 ----------------------------------------------------------------
     C         6        -0.00000000     0.00000000     1.72418037
     O         8         0.00000000     0.00000000    -1.14950720
 ----------------------------------------------------------------
 
   Interatomic distance matrix (Angstroms) 
 
                 C             O    
                [ 1]        [ 2]
  C    [ 1]     0.00000
  O    [ 2]     1.52069     0.00000
 rotcon2
   Rotational constants (in cm-1): 
          1.0124905532             0.0000000000
   Rotational constants (in MHz): 
      30353.7074175086             0.0000000000
  ECPDATA file not present.   Using default ECPDATA. 
  @GTFLGS-I, Hessian will be transformed to curvilinear coordinates.
  There are  218 basis functions.
 @CHECKOUT-I, Total execution time (CPU/WALL):        0.14/       0.20 seconds.
--executable xjoda finished with status     0 in        0.23 seconds (walltime).
 --invoking executable--
/nfs/workspaces/public/cfour_mpi/bin/xvmol
 SERIAL VERSION OF MOLECULE STARTED
********************************************************************************
                    INPUT FROM MOL FILE
********************************************************************************
INTGRL        1    0    1    0    0    0    0    0    0                         
         *** CFOUR Program System (Release V0.1) ***                            
Carbon Monoxide DBOC calculation                                                
    2    2 X  Y       0.10E-08              0    0                              
   9999.00      3.00                                                            
          6.00000000    1    5    1    1    1    1    1                         
C #1  -0.000000000000000   0.000000000000000   1.724180367943942                
   16    9                                                                      
   33980.0000000000       9.100000000000000E-005 -1.900000000000000E-005        
  0.000000000000000E+000  0.000000000000000E+000  0.000000000000000E+000        
  0.000000000000000E+000  0.000000000000000E+000  0.000000000000000E+000        
  0.000000000000000E+000                                                        
   5089.00000000000       7.040000000000000E-004 -1.510000000000000E-004        
  0.000000000000000E+000  0.000000000000000E+000  0.000000000000000E+000        
  0.000000000000000E+000  0.000000000000000E+000  0.000000000000000E+000        
  0.000000000000000E+000                                                        
   1157.00000000000       3.693000000000000E-003 -7.850000000000000E-004        
  0.000000000000000E+000  0.000000000000000E+000  0.000000000000000E+000        
  0.000000000000000E+000  0.000000000000000E+000  0.000000000000000E+000        
  0.000000000000000E+000                                                        
   326.600000000000       1.536000000000000E-002 -3.324000000000000E-003        
  0.000000000000000E+000  0.000000000000000E+000  0.000000000000000E+000        
  0.000000000000000E+000  0.000000000000000E+000  0.000000000000000E+000        
  0.000000000000000E+000                                                        
   106.100000000000       5.292900000000000E-002 -1.151200000000000E-002        
  0.000000000000000E+000  0.000000000000000E+000  0.000000000000000E+000        
  0.000000000000000E+000  0.000000000000000E+000  0.000000000000000E+000        
  0.000000000000000E+000                                                        
   38.1100000000000       0.147043000000000      -3.416000000000000E-002        
  0.000000000000000E+000  0.000000000000000E+000  0.000000000000000E+000        
  0.000000000000000E+000  0.000000000000000E+000  0.000000000000000E+000        
  0.000000000000000E+000                                                        
   14.7500000000000       0.305631000000000      -7.717300000000001E-002        
  0.000000000000000E+000  0.000000000000000E+000  0.000000000000000E+000        
  0.000000000000000E+000  0.000000000000000E+000  0.000000000000000E+000        
  0.000000000000000E+000                                                        
   6.03500000000000       0.399345000000000      -0.141493000000000             
  0.000000000000000E+000  0.000000000000000E+000  0.000000000000000E+000        
  0.000000000000000E+000  0.000000000000000E+000  0.000000000000000E+000        
  0.000000000000000E+000                                                        
   2.53000000000000       0.217051000000000      -0.118019000000000             
  0.000000000000000E+000  0.000000000000000E+000  0.000000000000000E+000        
  0.000000000000000E+000  0.000000000000000E+000  0.000000000000000E+000        
  0.000000000000000E+000                                                        
  0.735500000000000       1.589400000000000E-002  0.273806000000000             
   1.00000000000000       0.000000000000000E+000  0.000000000000000E+000        
  0.000000000000000E+000  0.000000000000000E+000  0.000000000000000E+000        
  0.000000000000000E+000                                                        
  0.290500000000000      -3.084000000000000E-003  0.586510000000000             
  0.000000000000000E+000   1.00000000000000       0.000000000000000E+000        
  0.000000000000000E+000  0.000000000000000E+000  0.000000000000000E+000        
  0.000000000000000E+000                                                        
  0.111100000000000       9.779999999999999E-004  0.285430000000000             
  0.000000000000000E+000  0.000000000000000E+000   1.00000000000000             
  0.000000000000000E+000  0.000000000000000E+000  0.000000000000000E+000        
  0.000000000000000E+000                                                        
   7.21600000000000       0.000000000000000E+000  0.000000000000000E+000        
  0.000000000000000E+000  0.000000000000000E+000  0.000000000000000E+000        
   1.00000000000000       0.000000000000000E+000  0.000000000000000E+000        
  0.000000000000000E+000                                                        
   19.5700000000000       0.000000000000000E+000  0.000000000000000E+000        
  0.000000000000000E+000  0.000000000000000E+000  0.000000000000000E+000        
  0.000000000000000E+000   1.00000000000000       0.000000000000000E+000        
  0.000000000000000E+000                                                        
   53.0730000000000       0.000000000000000E+000  0.000000000000000E+000        
  0.000000000000000E+000  0.000000000000000E+000  0.000000000000000E+000        
  0.000000000000000E+000  0.000000000000000E+000   1.00000000000000             
  0.000000000000000E+000                                                        
  4.145000000000000E-002  0.000000000000000E+000  0.000000000000000E+000        
  0.000000000000000E+000  0.000000000000000E+000  0.000000000000000E+000        
  0.000000000000000E+000  0.000000000000000E+000  0.000000000000000E+000        
   1.00000000000000                                                             
   10    8                                                                      
   34.5100000000000       5.378000000000000E-003  0.000000000000000E+000        
  0.000000000000000E+000  0.000000000000000E+000  0.000000000000000E+000        
  0.000000000000000E+000  0.000000000000000E+000  0.000000000000000E+000        
   7.91500000000000       3.613200000000000E-002  0.000000000000000E+000        
  0.000000000000000E+000  0.000000000000000E+000  0.000000000000000E+000        
  0.000000000000000E+000  0.000000000000000E+000  0.000000000000000E+000        
   2.36800000000000       0.142493000000000       0.000000000000000E+000        
  0.000000000000000E+000  0.000000000000000E+000  0.000000000000000E+000        
  0.000000000000000E+000  0.000000000000000E+000  0.000000000000000E+000        
  0.813200000000000       0.342150000000000        1.00000000000000             
  0.000000000000000E+000  0.000000000000000E+000  0.000000000000000E+000        
  0.000000000000000E+000  0.000000000000000E+000  0.000000000000000E+000        
  0.289000000000000       0.463864000000000       0.000000000000000E+000        
   1.00000000000000       0.000000000000000E+000  0.000000000000000E+000        
  0.000000000000000E+000  0.000000000000000E+000  0.000000000000000E+000        
  0.100700000000000       0.250028000000000       0.000000000000000E+000        
  0.000000000000000E+000   1.00000000000000       0.000000000000000E+000        
  0.000000000000000E+000  0.000000000000000E+000  0.000000000000000E+000        
   8.18200000000000       0.000000000000000E+000  0.000000000000000E+000        
  0.000000000000000E+000  0.000000000000000E+000   1.00000000000000             
  0.000000000000000E+000  0.000000000000000E+000  0.000000000000000E+000        
   24.1860000000000       0.000000000000000E+000  0.000000000000000E+000        
  0.000000000000000E+000  0.000000000000000E+000  0.000000000000000E+000        
   1.00000000000000       0.000000000000000E+000  0.000000000000000E+000        
   71.4940000000000       0.000000000000000E+000  0.000000000000000E+000        
  0.000000000000000E+000  0.000000000000000E+000  0.000000000000000E+000        
  0.000000000000000E+000   1.00000000000000       0.000000000000000E+000        
  3.218000000000000E-002  0.000000000000000E+000  0.000000000000000E+000        
  0.000000000000000E+000  0.000000000000000E+000  0.000000000000000E+000        
  0.000000000000000E+000  0.000000000000000E+000   1.00000000000000             
    6    6                                                                      
   1.84800000000000        1.00000000000000       0.000000000000000E+000        
  0.000000000000000E+000  0.000000000000000E+000  0.000000000000000E+000        
  0.000000000000000E+000                                                        
  0.649000000000000       0.000000000000000E+000   1.00000000000000             
  0.000000000000000E+000  0.000000000000000E+000  0.000000000000000E+000        
  0.000000000000000E+000                                                        
  0.228000000000000       0.000000000000000E+000  0.000000000000000E+000        
   1.00000000000000       0.000000000000000E+000  0.000000000000000E+000        
  0.000000000000000E+000                                                        
   8.65600000000000       0.000000000000000E+000  0.000000000000000E+000        
  0.000000000000000E+000   1.00000000000000       0.000000000000000E+000        
  0.000000000000000E+000                                                        
   33.2130000000000       0.000000000000000E+000  0.000000000000000E+000        
  0.000000000000000E+000  0.000000000000000E+000   1.00000000000000             
  0.000000000000000E+000                                                        
  7.660000000000000E-002  0.000000000000000E+000  0.000000000000000E+000        
  0.000000000000000E+000  0.000000000000000E+000  0.000000000000000E+000        
   1.00000000000000                                                             
    4    4                                                                      
   1.41900000000000        1.00000000000000       0.000000000000000E+000        
  0.000000000000000E+000  0.000000000000000E+000                                
  0.485000000000000       0.000000000000000E+000   1.00000000000000             
  0.000000000000000E+000  0.000000000000000E+000                                
   24.6940000000000       0.000000000000000E+000  0.000000000000000E+000        
   1.00000000000000       0.000000000000000E+000                                
  0.187000000000000       0.000000000000000E+000  0.000000000000000E+000        
  0.000000000000000E+000   1.00000000000000                                     
    2    2                                                                      
   1.01100000000000        1.00000000000000       0.000000000000000E+000        
  0.424000000000000       0.000000000000000E+000   1.00000000000000             
          8.00000000    1    5    1    1    1    1    1                         
O #2   0.000000000000000   0.000000000000000  -1.149507203140321                
   16    9                                                                      
   61420.0000000000       9.000000000000001E-005 -2.000000000000000E-005        
  0.000000000000000E+000  0.000000000000000E+000  0.000000000000000E+000        
  0.000000000000000E+000  0.000000000000000E+000  0.000000000000000E+000        
  0.000000000000000E+000                                                        
   9199.00000000000       6.980000000000001E-004 -1.590000000000000E-004        
  0.000000000000000E+000  0.000000000000000E+000  0.000000000000000E+000        
  0.000000000000000E+000  0.000000000000000E+000  0.000000000000000E+000        
  0.000000000000000E+000                                                        
   2091.00000000000       3.664000000000000E-003 -8.290000000000000E-004        
  0.000000000000000E+000  0.000000000000000E+000  0.000000000000000E+000        
  0.000000000000000E+000  0.000000000000000E+000  0.000000000000000E+000        
  0.000000000000000E+000                                                        
   590.900000000000       1.521800000000000E-002 -3.508000000000000E-003        
  0.000000000000000E+000  0.000000000000000E+000  0.000000000000000E+000        
  0.000000000000000E+000  0.000000000000000E+000  0.000000000000000E+000        
  0.000000000000000E+000                                                        
   192.300000000000       5.242300000000000E-002 -1.215600000000000E-002        
  0.000000000000000E+000  0.000000000000000E+000  0.000000000000000E+000        
  0.000000000000000E+000  0.000000000000000E+000  0.000000000000000E+000        
  0.000000000000000E+000                                                        
   69.3200000000000       0.145921000000000      -3.626100000000000E-002        
  0.000000000000000E+000  0.000000000000000E+000  0.000000000000000E+000        
  0.000000000000000E+000  0.000000000000000E+000  0.000000000000000E+000        
  0.000000000000000E+000                                                        
   26.9700000000000       0.305258000000000      -8.299200000000000E-002        
  0.000000000000000E+000  0.000000000000000E+000  0.000000000000000E+000        
  0.000000000000000E+000  0.000000000000000E+000  0.000000000000000E+000        
  0.000000000000000E+000                                                        
   11.1000000000000       0.398508000000000      -0.152090000000000             
  0.000000000000000E+000  0.000000000000000E+000  0.000000000000000E+000        
  0.000000000000000E+000  0.000000000000000E+000  0.000000000000000E+000        
  0.000000000000000E+000                                                        
   4.68200000000000       0.216980000000000      -0.115331000000000             
  0.000000000000000E+000  0.000000000000000E+000  0.000000000000000E+000        
  0.000000000000000E+000  0.000000000000000E+000  0.000000000000000E+000        
  0.000000000000000E+000                                                        
   1.42800000000000       1.759400000000000E-002  0.288979000000000             
   1.00000000000000       0.000000000000000E+000  0.000000000000000E+000        
  0.000000000000000E+000  0.000000000000000E+000  0.000000000000000E+000        
  0.000000000000000E+000                                                        
  0.554700000000000      -2.502000000000000E-003  0.586128000000000             
  0.000000000000000E+000   1.00000000000000       0.000000000000000E+000        
  0.000000000000000E+000  0.000000000000000E+000  0.000000000000000E+000        
  0.000000000000000E+000                                                        
  0.206700000000000       9.540000000000000E-004  0.277624000000000             
  0.000000000000000E+000  0.000000000000000E+000   1.00000000000000             
  0.000000000000000E+000  0.000000000000000E+000  0.000000000000000E+000        
  0.000000000000000E+000                                                        
   12.9740000000000       0.000000000000000E+000  0.000000000000000E+000        
  0.000000000000000E+000  0.000000000000000E+000  0.000000000000000E+000        
   1.00000000000000       0.000000000000000E+000  0.000000000000000E+000        
  0.000000000000000E+000                                                        
   34.9000000000000       0.000000000000000E+000  0.000000000000000E+000        
  0.000000000000000E+000  0.000000000000000E+000  0.000000000000000E+000        
  0.000000000000000E+000   1.00000000000000       0.000000000000000E+000        
  0.000000000000000E+000                                                        
   93.8810000000000       0.000000000000000E+000  0.000000000000000E+000        
  0.000000000000000E+000  0.000000000000000E+000  0.000000000000000E+000        
  0.000000000000000E+000  0.000000000000000E+000   1.00000000000000             
  0.000000000000000E+000                                                        
  6.959000000000000E-002  0.000000000000000E+000  0.000000000000000E+000        
  0.000000000000000E+000  0.000000000000000E+000  0.000000000000000E+000        
  0.000000000000000E+000  0.000000000000000E+000  0.000000000000000E+000        
   1.00000000000000                                                             
   10    8                                                                      
   63.4200000000000       6.044000000000000E-003  0.000000000000000E+000        
  0.000000000000000E+000  0.000000000000000E+000  0.000000000000000E+000        
  0.000000000000000E+000  0.000000000000000E+000  0.000000000000000E+000        
   14.6600000000000       4.179900000000000E-002  0.000000000000000E+000        
  0.000000000000000E+000  0.000000000000000E+000  0.000000000000000E+000        
  0.000000000000000E+000  0.000000000000000E+000  0.000000000000000E+000        
   4.45900000000000       0.161143000000000       0.000000000000000E+000        
  0.000000000000000E+000  0.000000000000000E+000  0.000000000000000E+000        
  0.000000000000000E+000  0.000000000000000E+000  0.000000000000000E+000        
   1.53100000000000       0.356731000000000        1.00000000000000             
  0.000000000000000E+000  0.000000000000000E+000  0.000000000000000E+000        
  0.000000000000000E+000  0.000000000000000E+000  0.000000000000000E+000        
  0.530200000000000       0.448309000000000       0.000000000000000E+000        
   1.00000000000000       0.000000000000000E+000  0.000000000000000E+000        
  0.000000000000000E+000  0.000000000000000E+000  0.000000000000000E+000        
  0.175000000000000       0.244940000000000       0.000000000000000E+000        
  0.000000000000000E+000   1.00000000000000       0.000000000000000E+000        
  0.000000000000000E+000  0.000000000000000E+000  0.000000000000000E+000        
   14.4750000000000       0.000000000000000E+000  0.000000000000000E+000        
  0.000000000000000E+000  0.000000000000000E+000   1.00000000000000             
  0.000000000000000E+000  0.000000000000000E+000  0.000000000000000E+000        
   42.7300000000000       0.000000000000000E+000  0.000000000000000E+000        
  0.000000000000000E+000  0.000000000000000E+000  0.000000000000000E+000        
   1.00000000000000       0.000000000000000E+000  0.000000000000000E+000        
   126.140000000000       0.000000000000000E+000  0.000000000000000E+000        
  0.000000000000000E+000  0.000000000000000E+000  0.000000000000000E+000        
  0.000000000000000E+000   1.00000000000000       0.000000000000000E+000        
  5.348000000000000E-002  0.000000000000000E+000  0.000000000000000E+000        
  0.000000000000000E+000  0.000000000000000E+000  0.000000000000000E+000        
  0.000000000000000E+000  0.000000000000000E+000   1.00000000000000             
    6    6                                                                      
   3.77500000000000        1.00000000000000       0.000000000000000E+000        
  0.000000000000000E+000  0.000000000000000E+000  0.000000000000000E+000        
  0.000000000000000E+000                                                        
   1.30000000000000       0.000000000000000E+000   1.00000000000000             
  0.000000000000000E+000  0.000000000000000E+000  0.000000000000000E+000        
  0.000000000000000E+000                                                        
  0.444000000000000       0.000000000000000E+000  0.000000000000000E+000        
   1.00000000000000       0.000000000000000E+000  0.000000000000000E+000        
  0.000000000000000E+000                                                        
   14.9270000000000       0.000000000000000E+000  0.000000000000000E+000        
  0.000000000000000E+000   1.00000000000000       0.000000000000000E+000        
  0.000000000000000E+000                                                        
   57.5440000000000       0.000000000000000E+000  0.000000000000000E+000        
  0.000000000000000E+000  0.000000000000000E+000   1.00000000000000             
  0.000000000000000E+000                                                        
  0.154000000000000       0.000000000000000E+000  0.000000000000000E+000        
  0.000000000000000E+000  0.000000000000000E+000  0.000000000000000E+000        
   1.00000000000000                                                             
    4    4                                                                      
   2.66600000000000        1.00000000000000       0.000000000000000E+000        
  0.000000000000000E+000  0.000000000000000E+000                                
  0.859000000000000       0.000000000000000E+000   1.00000000000000             
  0.000000000000000E+000  0.000000000000000E+000                                
   26.4830000000000       0.000000000000000E+000  0.000000000000000E+000        
   1.00000000000000       0.000000000000000E+000                                
  0.324000000000000       0.000000000000000E+000  0.000000000000000E+000        
  0.000000000000000E+000   1.00000000000000                                     
    2    2                                                                      
   1.84600000000000        1.00000000000000       0.000000000000000E+000        
  0.714000000000000       0.000000000000000E+000   1.00000000000000             
FINISH                                                                          
 
********************************************************************************
 ONE- AND TWO-ELECTRON INTEGRALS OVER SYMMETRY-ADAPTED AOS ARE CALCULATED.

  SPHERICAL HARMONICS ARE USED.
  
  INTEGRALS LESS THAN  0.10E-13 ARE NEGLECTED.

  NUCLEAR REPULSION ENERGY :   16.7032771701 A.U.
  @MOLECU-I, ONE ELECTRON INTEGRALS (CPU/WALL):        0.05/       0.06 SECONDS.
  @TWOEL-I,    4462687 INTEGRALS OF SYMMETRY TYPE  I I I I
  @TWOEL-I,   19246717 INTEGRALS OF SYMMETRY TYPE  I J I J
  @TWOEL-I,   10134961 INTEGRALS OF SYMMETRY TYPE  I I J J
  @TWOEL-I,   14233392 INTEGRALS OF SYMMETRY TYPE  I J K L
  @TWOEL-I, TOTAL NUMBER OF 2-E INTEGRALS   48077757.
  @MOLECU-I, TWO ELECTRON INTEGRALS (CPU/WALL):      234.60/      31.75 SECONDS.
 @CHECKOUT-I, Total execution time (CPU/WALL):      234.67/      31.83 seconds.

Running with 14 threads/proc

--executable xvmol finished with status     0 in       31.87 seconds (walltime).
 --invoking executable--
/nfs/workspaces/public/cfour_mpi/bin/xvmol2ja
 @GETMEM-I,  Allocated    3814 MB of main memory.
 @CHECKOUT-I, Total execution time (CPU/WALL):        0.18/       0.06 seconds.
--executable xvmol2ja finished with status     0 in        0.11 seconds (walltime).
 --invoking executable--
/nfs/workspaces/public/cfour_mpi/bin/xvprop
 @GETMEM-I,  Allocated    3814 MB of main memory.
   Property integrals will be calculated.
    --------------------------------------------------------------
                                   Property evaluated at 
    Property type                X             Y             Z
    --------------------------------------------------------------
    Dipole moment               ----          ----          ----  
    Quadrupole moment           ----          ----          ----  
    Octopole moment             ----          ----          ----  
    Relativisitic corr.         ----          ----          ----  
    Second moment            0.0000000     0.0000000     0.0000000
    Electron density         0.0000000     0.0000000     1.7241804
    Electron density         0.0000000     0.0000000    -1.1495072
    Field gradient           0.0000000     0.0000000     1.7241804
    Field gradient           0.0000000     0.0000000    -1.1495072
    Potential                0.0000000     0.0000000     1.7241804
    Potential                0.0000000     0.0000000    -1.1495072
    --------------------------------------------------------------
 @CHECKOUT-I, Total execution time (CPU/WALL):        1.35/       1.38 seconds.
--executable xvprop finished with status     0 in        1.44 seconds (walltime).
 --invoking executable--
/nfs/workspaces/public/cfour_mpi/bin/xvscf
  There are  218 functions in the AO basis.

  There are 4 irreducible representations.

       Irrep        # of functions
         1                 86
         2                 52
         3                 52
         4                 28


  Parameters for SCF calculation: 
        SCF reference function:  RHF  
  Maximum number of iterations:  150
     Full symmetry point group: CXv 
     Computational point group: C2v 
        Initial density matrix: MOREAD                 
     SCF convergence tolerance: 10**(-10)
  DIIS convergence acceleration:  ON
          Latest start for DIIS:   8
                     DIIS order:   6

  Memory information:    2523578 words required.
  Fock matrices are constructed from AO integral file.
 @GETMEM-I,  Allocated      19 MB of main memory.
  Initialization and symmetry analysis required      0.001 seconds.

  Adding electric field perturbation to one-electron Hamiltonian.
  Field direction     : Z
  Field strength      : -0.0002000 a.u.

  @INITGES-I, Occupancies from core Hamiltonian:

          Alpha population by irrep:   5    1    1    0
           Beta population by irrep:   5    1    1    0


 total no. of electrons in initial guess :  0.000000000000000E+000
  --------------------------------------------------------------------
  Iteration         Total Energy            Largest Density Difference
  --------------------------------------------------------------------
       0            16.703506974983952              0.0000000000D+00
   current occupation vector 
     5  1  1  0
     5  1  1  0
       1           -93.462312307286780              0.1753477236D+02
   current occupation vector 
     5  1  1  0
     5  1  1  0
       2           -98.189520607177386              0.1753474730D+02
   current occupation vector 
     5  1  1  0
     5  1  1  0
       3          -101.313628266395199              0.6231141047D+01
   current occupation vector 
     5  1  1  0
     5  1  1  0
       4           -96.354223757755193              0.6223431337D+01
   current occupation vector 
     5  1  1  0
     5  1  1  0
       5          -100.619253891327247              0.6825878233D+01
   current occupation vector 
     5  1  1  0
     5  1  1  0
       6           -95.723754258236994              0.6826133927D+01
   current occupation vector 
     5  1  1  0
     5  1  1  0
       7          -100.592127031117670              0.6872192943D+01
   current occupation vector 
     5  1  1  0
     5  1  1  0
       8           -95.701016537231496              0.6872314988D+01
   current occupation vector 
     5  1  1  0
     5  1  1  0
       9          -107.474400911692641              0.5574939560D+01
   current occupation vector 
     5  1  1  0
     5  1  1  0
      10          -109.810943656452451              0.1094973226D+01
   current occupation vector 
     5  1  1  0
     5  1  1  0
      11          -112.357443696140137              0.1382452671D+01
   current occupation vector 
     5  1  1  0
     5  1  1  0
      12          -112.574121540716533              0.4917860873D+00
   current occupation vector 
     5  1  1  0
     5  1  1  0
      13          -112.580218999334164              0.1286026420D+00
   current occupation vector 
     5  1  1  0
     5  1  1  0
      14          -112.582347592810322              0.6171434002D-01
   current occupation vector 
     5  1  1  0
     5  1  1  0
      15          -112.582492207760595              0.1602124146D-01
   current occupation vector 
     5  1  1  0
     5  1  1  0
      16          -112.582575019745320              0.1577181797D-01
   current occupation vector 
     5  1  1  0
     5  1  1  0
      17          -112.582602591561141              0.1049722488D-01
   current occupation vector 
     5  1  1  0
     5  1  1  0
      18          -112.582607211116368              0.5620664199D-02
   current occupation vector 
     5  1  1  0
     5  1  1  0
      19          -112.582607241087771              0.4504829090D-03
   current occupation vector 
     5  1  1  0
     5  1  1  0
      20          -112.582607241530269              0.1494611877D-04
   current occupation vector 
     5  1  1  0
     5  1  1  0
      21          -112.582607241555905              0.7928265884D-05
   current occupation vector 
     5  1  1  0
     5  1  1  0
      22          -112.582607241556957              0.1001047381D-05
   current occupation vector 
     5  1  1  0
     5  1  1  0
      23          -112.582607241557668              0.1585177799D-06
   current occupation vector 
     5  1  1  0
     5  1  1  0
      24          -112.582607241556843              0.6022094601D-07
   current occupation vector 
     5  1  1  0
     5  1  1  0
      25          -112.582607241556360              0.1386077186D-07
   current occupation vector 
     5  1  1  0
     5  1  1  0
      26          -112.582607241556417              0.3616124067D-08
   current occupation vector 
     5  1  1  0
     5  1  1  0
      27          -112.582607241556104              0.2772352348D-08
   current occupation vector 
     5  1  1  0
     5  1  1  0
      28          -112.582607241557184              0.9104133003D-09
   current occupation vector 
     5  1  1  0
     5  1  1  0

  SCF has converged.

 Density matrix saved to file den.dat
 total electron number:   14.0000000000000     
     E(SCF)=      -112.582607241556985              0.7904668586D-10

  Eigenvector printing suppressed.

 @PUTMOS-I, Writing converged MOs to NEWMOS. 
 @PUTMOS-I, Symmetry   1 Full Blocks 21 Partial Blocksize   2
 @PUTMOS-I, Symmetry   2 Full Blocks 13 Partial Blocksize   0
 @PUTMOS-I, Symmetry   3 Full Blocks 13 Partial Blocksize   0
 @PUTMOS-I, Symmetry   4 Full Blocks  7 Partial Blocksize   0
 @PUTFOCK-I, Writing converged Fock matrix to NEWFOCK. 
 @PUTFOCK-I, Symmetry   1 Full Blocks 21 Partial Blocksize   2
 @PUTFOCK-I, Symmetry   2 Full Blocks 13 Partial Blocksize   0
 @PUTFOCK-I, Symmetry   3 Full Blocks 13 Partial Blocksize   0
 @PUTFOCK-I, Symmetry   4 Full Blocks  7 Partial Blocksize   0


 
  ORBITAL EIGENVALUES (ALPHA)  (1H = 27.2113834 eV)

       MO #        E(hartree)               E(eV)           FULLSYM    COMPSYM
       ----   --------------------   --------------------   -------   ---------
    1     1         -20.6528175373        -561.9917362970     SG+        A1 (1)
    2     2         -11.5045478256        -313.0546617259     SG+        A1 (1)
    3     3          -1.3066172964         -35.5548642100     SG+        A1 (1)
    4     4          -0.7993614436         -21.7517307165     SG+        A1 (1)
    5     5          -0.5461527310         -14.8615713571     SG+        A1 (1)
    6    87          -0.5134762120         -13.9723980723      PI        B1 (2)
    7   139          -0.5134762120         -13.9723980723      PI        B2 (3)
  +++++++++++++++++++++++++++++++++++++++++++++++++++++++++++++++++++++++++++++
    8    88           0.0079220864           0.2155709294      PI        B1 (2)
    9   140           0.0079220864           0.2155709294      PI        B2 (3)
   10     6           0.0611214097           1.6631981145     SG+        A1 (1)
   11     7           0.0686128633           1.8670509295     SG+        A1 (1)
   12   141           0.0833684325           2.2685703795      PI        B2 (3)
   13    89           0.0833684325           2.2685703795      PI        B1 (2)
   14     8           0.1574413818           4.2841978032     SG+        A1 (1)
   15    90           0.1772991506           4.8245551633      PI        B1 (2)
   16   142           0.1772991506           4.8245551633      PI        B2 (3)
   17     9           0.2129115906           5.7936189216     SG+        A1 (1)
   18    10           0.2230768980           6.0702310004      DE        A1 (1)
   19   191           0.2230768980           6.0702310004      DE        A2 (4)
   20    91           0.2889655165           7.8631514579      PI        B1 (2)
   21   143           0.2889655165           7.8631514579      PI        B2 (3)
   22    11           0.3002088792           8.1690989129     SG+        A1 (1)
   23    12           0.3349116681           9.1134098054     SG+        A1 (1)
   24    92           0.4025111827          10.9528861163      PI        B1 (2)
   25   144           0.4025111827          10.9528861163      PI        B2 (3)
   26    13           0.4358153961          11.8591398346     SG+        A1 (1)
   27    14           0.5127277784          13.9520321587     SG+        A1 (1)
   28   192           0.5491309903          14.9426139143      DE        A2 (4)
   29    15           0.5491309903          14.9426139143      DE        A1 (1)
   30   145           0.6238814615          16.9766776461      PI        B2 (3)
   31    93           0.6238814615          16.9766776461      PI        B1 (2)
   32    16           0.7129549160          19.4004895675     SG+        A1 (1)
   33   146           0.7347922216          19.9947128617      PH        B2 (3)
   34    94           0.7347922216          19.9947128617      PH        B1 (2)
   35   193           0.7434708751          20.2308710300      DE        A2 (4)
   36    17           0.7434708751          20.2308710300      DE        A1 (1)
   37   147           0.7817862278          21.2734847811      PI        B2 (3)
   38    95           0.7817862278          21.2734847811      PI        B1 (2)
   39    18           0.8234219924          22.4064515364     SG+        A1 (1)
   40   194           0.8651527279          23.5420025787      DE        A2 (4)
   41    19           0.8651527279          23.5420025787      DE        A1 (1)
   42    20           0.8755508689          23.8249503802     SG+        A1 (1)
   43   148           0.8922271184          24.2787341992      PI        B2 (3)
   44    96           0.8922271184          24.2787341992      PI        B1 (2)
   45   149           1.0342242656          28.1426730127      PI        B2 (3)
   46    97           1.0342242656          28.1426730127      PI        B1 (2)
   47    21           1.1271492209          30.6712895990     SG+        A1 (1)
   48    22           1.3765949886          37.4590540202     SG+        A1 (1)
   49    98           1.4233861691          38.7323067740      PH        B1 (2)
   50   150           1.4233861691          38.7323067740      PH        B2 (3)
   51    99           1.5142275947          41.2042276340      PI        B1 (2)
   52   151           1.5142275947          41.2042276340      PI        B2 (3)
   53    23           1.5784352811          42.9514076068      DE        A1 (1)
   54   195           1.5784352811          42.9514076068      DE        A2 (4)
   55    24           1.6052821581          43.6819482688     SG+        A1 (1)
   56   152           1.6382862526          44.5800353389      PI        B2 (3)
   57   100           1.6382862526          44.5800353389      PI        B1 (2)
   58   196           1.6914312304          46.0261837057      DE        A2 (4)
   59    25           1.6914312304          46.0261837057      DE        A1 (1)
   60    26           1.9114401039          52.0129295143     SG+        A1 (1)
   61    27           1.9765668927          53.7851195325     SG+        A1 (1)
   62    28           2.0740165053          56.4368583040      PI        A1 (1)
   63   197           2.0740165053          56.4368583040      PI        A2 (4)
   64   153           2.0868633339          56.7864382828      PI        B2 (3)
   65   101           2.0868633339          56.7864382829      PI        B1 (2)
   66   198           2.1343076827          58.0774646488      DE        A2 (4)
   67    29           2.1343076827          58.0774646488      DE        A1 (1)
   68   154           2.2130103060          60.2190719055      PH        B2 (3)
   69   102           2.2130103060          60.2190719055      PH        B1 (2)
   70   103           2.2292019359          60.6596685548      PH        B1 (2)
   71   155           2.2292019359          60.6596685548      PH        B2 (3)
   72    30           2.2363744623          60.8548429190     SG+        A1 (1)
   73   104           2.2378209492          60.8942038288      PI        B1 (2)
   74   156           2.2378209492          60.8942038288      PI        B2 (3)
   75    31           2.2949291786          62.4481977553      DE        A1 (1)
   76   199           2.2949291786          62.4481977553      DE        A2 (4)
   77    32           2.4355415998          66.2744562600     SG+        A1 (1)
   78   157           2.5187745522          68.5393400386      PI        B2 (3)
   79   105           2.5187745522          68.5393400386      PI        B1 (2)
   80   158           2.5985133778          70.7091437923      PI        B2 (3)
   81   106           2.5985133778          70.7091437923      PI        B1 (2)
   82    33           2.6117144033          71.0683619585     SG+        A1 (1)
   83   200           2.6888900651          73.1684184818      DE        A2 (4)
   84    34           2.6888900651          73.1684184819      DE        A1 (1)
   85    35           3.0354384199          82.5984786311     SG+        A1 (1)
   86   159           3.4570755152          94.0718072861      PI        B2 (3)
   87   107           3.4570755152          94.0718072861      PI        B1 (2)
   88    36           3.7045267798         100.8052985203      PI        A1 (1)
   89   201           3.7045267798         100.8052985203      PI        A2 (4)
   90    37           3.9048716449         106.2569594562     SG+        A1 (1)
   91   108           3.9494720813         107.4705990307      PH        B1 (2)
   92   160           3.9494720813         107.4705990308      PH        B2 (3)
   93   161           4.1332143451         112.4704802185      PH        B2 (3)
   94   109           4.1332143451         112.4704802185      PH        B1 (2)
   95   162           4.1600266078         113.2000789791      PI        B2 (3)
   96   110           4.1600266078         113.2000789791      PI        B1 (2)
   97    38           4.1644892025         113.3215123547     SG+        A1 (1)
   98   202           4.2040866189         114.3990128345      DE        A2 (4)
   99    39           4.2040866189         114.3990128345      DE        A1 (1)
  100    40           4.2812839116         116.4996579637      DE        A1 (1)
  101   203           4.2812839116         116.4996579637      DE        A2 (4)
  102    41           4.4390045047         120.7914534916     SG+        A1 (1)
  103   163           4.5868872494         124.8155475547      PI        B2 (3)
  104   111           4.5868872494         124.8155475547      PI        B1 (2)
  105   204           4.7442550372         129.0977427642      DE        A2 (4)
  106    42           4.7442550372         129.0977427643      DE        A1 (1)
  107    43           4.7511782903         129.2861340599     SG+        A1 (1)
  108   164           5.1853537331         141.1006484952      PI        B2 (3)
  109   112           5.1853537331         141.1006484952      PI        B1 (2)
  110    44           5.3115526544         144.5346957289     SG+        A1 (1)
  111   165           5.3543922420         145.7004201705      PI        B2 (3)
  112   113           5.3543922420         145.7004201707      PI        B1 (2)
  113    45           5.8380544488         158.8615379151      PI        A1 (1)
  114   205           5.8380544488         158.8615379151      PI        A2 (4)
  115   114           5.9140701433         160.9300301242      PH        B1 (2)
  116   166           5.9140701433         160.9300301242      PH        B2 (3)
  117    46           6.0806906492         165.4640045933     SG+        A1 (1)
  118    47           6.1351173285         166.9450298300      DE        A1 (1)
  119   206           6.1351173285         166.9450298300      DE        A2 (4)
  120   167           6.1546204354         167.4757363481      PI        B2 (3)
  121   115           6.1546204354         167.4757363481      PI        B1 (2)
  122    48           6.2116840707         169.0285168066     SG+        A1 (1)
  123   168           6.3669098244         173.2524243059      PH        B2 (3)
  124   116           6.3669098244         173.2524243059      PH        B1 (2)
  125   207           6.3777737789         173.5480475358      DE        A2 (4)
  126    49           6.3777737789         173.5480475358      DE        A1 (1)
  127    50           6.5015876896         176.9171953299      DE        A1 (1)
  128   208           6.5015876896         176.9171953299      DE        A2 (4)
  129   169           6.8464093086         186.3002686104      PI        B2 (3)
  130   117           6.8464093086         186.3002686105      PI        B1 (2)
  131    51           7.1349095201         194.1507584745     SG+        A1 (1)
  132   170           7.3995632752         201.3523532744      PI        B2 (3)
  133   118           7.3995632752         201.3523532744      PI        B1 (2)
  134    52           8.0219728890         218.2889799078     SG+        A1 (1)
  135    53           9.6344426343         262.1665123674     SG+        A1 (1)
  136   171           9.8142222480         267.0585643635      PI        B2 (3)
  137   119           9.8142222480         267.0585643635      PI        B1 (2)
  138   209          10.6442839690         289.6456920997      PI        A2 (4)
  139    54          10.6442839690         289.6456920997      PI        A1 (1)
  140    55          10.6994037923         291.1455787440     SG+        A1 (1)
  141   172          10.7454959610         292.3998104188      PH        B2 (3)
  142   120          10.7454959610         292.3998104188      PH        B1 (2)
  143   210          10.9779520402         298.7252619131      DE        A2 (4)
  144    56          10.9779520402         298.7252619131      DE        A1 (1)
  145   173          10.9837983986         298.8843494139      PI        B2 (3)
  146   121          10.9837983986         298.8843494139      PI        B1 (2)
  147    57          11.1916545403         304.5404025769     SG+        A1 (1)
  148   122          11.8828356512         323.3483967852      PH        B1 (2)
  149   174          11.8828356512         323.3483967852      PH        B2 (3)
  150    58          12.0091899254         326.7866713826      DE        A1 (1)
  151   211          12.0091899254         326.7866713829      DE        A2 (4)
  152   123          12.4493718402         338.7646302333      PI        B1 (2)
  153   175          12.4493718402         338.7646302333      PI        B2 (3)
  154    59          12.6798966190         345.0375283722     SG+        A1 (1)
  155    60          12.7356782887         346.5554247726      DE        A1 (1)
  156   212          12.7356782887         346.5554247726      DE        A2 (4)
  157   176          13.0922322857         356.2577522868      PI        B2 (3)
  158   124          13.0922322857         356.2577522868      PI        B1 (2)
  159    61          13.6536708739         371.5352729669     SG+        A1 (1)
  160    62          17.4025459108         473.5473489149     SG+        A1 (1)
  161   177          18.7678319282         510.6986701849      PI        B2 (3)
  162   125          18.7678319282         510.6986701853      PI        B1 (2)
  163    63          19.8825372735         541.0313447136     SG+        A1 (1)
  164    64          26.2799459663         715.1136854207      DE        A1 (1)
  165   213          26.2799459663         715.1136854208      DE        A2 (4)
  166   126          26.6245488826         724.4908074973      PI        B1 (2)
  167   178          26.6245488826         724.4908074973      PI        B2 (3)
  168    65          27.1090677836         737.6752370769     SG+        A1 (1)
  169   179          33.4929096710         911.3884062397      PI        B2 (3)
  170   127          33.4929096711         911.3884062406      PI        B1 (2)
  171    66          34.3299765506         934.1661540301     SG+        A1 (1)
  172    67          35.7010422950         971.4747496677     SG+        A1 (1)
  173   214          47.0729357730        1280.9197030838      DE        A2 (4)
  174    68          47.0729357730        1280.9197030838      DE        A1 (1)
  175   128          47.2576394283        1285.9457450616      PI        B1 (2)
  176   180          47.2576394283        1285.9457450616      PI        B2 (3)
  177    69          47.5839803650        1294.8259334102     SG+        A1 (1)
  178    70          63.8216086039        1736.6742609251     SG+        A1 (1)
  179   181          66.3430136490        1805.2851803143      PI        B2 (3)
  180   129          66.3430136490        1805.2851803146      PI        B1 (2)
  181    71          67.1502170628        1827.2503018883     SG+        A1 (1)
  182   182          98.5254072723        2681.0126319273      PH        B2 (3)
  183   130          98.5254072723        2681.0126319273      PH        B1 (2)
  184    72          98.5388207829        2681.3776321064      DE        A1 (1)
  185   215          98.5388207829        2681.3776321065      DE        A2 (4)
  186   183          98.5528667615        2681.7598426152      PI        B2 (3)
  187   131          98.5528667615        2681.7598426153      PI        B1 (2)
  188    73          98.5660215334        2682.1178021574     SG+        A1 (1)
  189   184         103.3021385599        2810.9940983934      PH        B2 (3)
  190   132         103.3021385599        2810.9940983934      PH        B1 (2)
  191   216         103.3073452869        2811.1357806382      DE        A2 (4)
  192    74         103.3073452869        2811.1357806388      DE        A1 (1)
  193   133         103.3422641249        2812.0859705270      PI        B1 (2)
  194   185         103.3422641249        2812.0859705270      PI        B2 (3)
  195    75         103.3465944163        2812.2038037454     SG+        A1 (1)
  196   217         114.9795815244        3128.7534760323      DE        A2 (4)
  197    76         114.9795815244        3128.7534760323      DE        A1 (1)
  198   186         115.1459068125        3133.2794172153      PI        B2 (3)
  199   134         115.1459068125        3133.2794172153      PI        B1 (2)
  200    77         115.3947462338        3140.0506821132     SG+        A1 (1)
  201   187         116.7859082844        3177.9061260435      PI        B2 (3)
  202   135         116.7859082844        3177.9061260445      PI        B1 (2)
  203    78         117.4624194241        3196.3149300415     SG+        A1 (1)
  204    79         121.9496176822        3318.4178022344     SG+        A1 (1)
  205   218         198.5521910048        5402.8797943425      DE        A2 (4)
  206    80         198.5521910048        5402.8797943425      DE        A1 (1)
  207   136         198.6528171528        5405.6179710346      PI        B1 (2)
  208   188         198.6528171528        5405.6179710346      PI        B2 (3)
  209    81         198.8213735820        5410.2046246541     SG+        A1 (1)
  210    82         216.3487813851        5887.1496383924     SG+        A1 (1)
  211   189         224.8191974405        6117.6413772343      PI        B2 (3)
  212   137         224.8191974405        6117.6413772345      PI        B1 (2)
  213    83         225.4501310399        6134.8099533058     SG+        A1 (1)
  214   190         395.2983503378       10756.6149684289      PI        B2 (3)
  215   138         395.2983503378       10756.6149684293      PI        B1 (2)
  216    84         395.8528396428       10771.7033895000     SG+        A1 (1)
  217    85         508.6564850211       13841.2466328055     SG+        A1 (1)
  218    86         895.1695601294       24358.8021086908     SG+        A1 (1)


  VSCF finished.

 @CHECKOUT-I, Total execution time (CPU/WALL):       52.84/      11.32 seconds.
--executable xvscf finished with status     0 in       11.40 seconds (walltime).
 --invoking executable--
/nfs/workspaces/public/cfour_mpi/bin/xvtran
 @GETMEM-I,  Allocated    3814 MB of main memory.
  Full RHF integral transformation
  Transformation of IIII integrals :
  1 pass through the AO integral file was required.
     4462687 AO integrals were read.
     8701248 MO integrals were written to HF2.
  Transformation of IIJJ integrals :
  1 pass through the AO integral file was required.
    10134961 AO integrals were read.
    14462603 MO integrals were written to HF2.
  Transformation of IJIJ integrals :
  1 pass through the AO integral file was required.
    19246717 AO integrals were read.
    27042377 MO integrals were written to HF2.
  Transformation of IJKL integrals :
  1 pass through the AO integral file was required.
    14233392 AO integrals were read.
    18267985 MO integrals were written to HF2.
  Summary of active molecular orbitals: 
------------------------------------------------------------------------
 
  Index      Eigenvalue    Symmetry    Index      Eigenvalue    Symmetry
------------------------------------------------------------------------
     1       -20.6528175        1       110         4.1332143        2
     2       -11.5045478        1       111         4.1600266        2
     3        -1.3066173        1       112         4.5868872        2
     4        -0.7993614        1       113         5.1853537        2
     5        -0.5461527        1       114         5.3543922        2
     6        -0.5134762        2       115         5.9140701        2
     7        -0.5134762        3       116         6.1546204        2
     8         0.0611214        1       117         6.3669098        2
     9         0.0686129        1       118         6.8464093        2
    10         0.1574414        1       119         7.3995633        2
    11         0.2129116        1       120         9.8142222        2
    12         0.2230769        1       121        10.7454960        2
    13         0.3002089        1       122        10.9837984        2
    14         0.3349117        1       123        11.8828357        2
    15         0.4358154        1       124        12.4493718        2
    16         0.5127278        1       125        13.0922323        2
    17         0.5491310        1       126        18.7678319        2
    18         0.7129549        1       127        26.6245489        2
    19         0.7434709        1       128        33.4929097        2
    20         0.8234220        1       129        47.2576394        2
    21         0.8651527        1       130        66.3430136        2
    22         0.8755509        1       131        98.5254073        2
    23         1.1271492        1       132        98.5528668        2
    24         1.3765950        1       133       103.3021386        2
    25         1.5784353        1       134       103.3422641        2
    26         1.6052822        1       135       115.1459068        2
    27         1.6914312        1       136       116.7859083        2
    28         1.9114401        1       137       198.6528172        2
    29         1.9765669        1       138       224.8191974        2
    30         2.0740165        1       139       395.2983503        2
    31         2.1343077        1       140         0.0079221        3
    32         2.2363745        1       141         0.0833684        3
    33         2.2949292        1       142         0.1772992        3
    34         2.4355416        1       143         0.2889655        3
    35         2.6117144        1       144         0.4025112        3
    36         2.6888901        1       145         0.6238815        3
    37         3.0354384        1       146         0.7347922        3
    38         3.7045268        1       147         0.7817862        3
    39         3.9048716        1       148         0.8922271        3
    40         4.1644892        1       149         1.0342243        3
    41         4.2040866        1       150         1.4233862        3
    42         4.2812839        1       151         1.5142276        3
    43         4.4390045        1       152         1.6382863        3
    44         4.7442550        1       153         2.0868633        3
    45         4.7511783        1       154         2.2130103        3
    46         5.3115527        1       155         2.2292019        3
    47         5.8380544        1       156         2.2378209        3
    48         6.0806906        1       157         2.5187746        3
    49         6.1351173        1       158         2.5985134        3
    50         6.2116841        1       159         3.4570755        3
    51         6.3777738        1       160         3.9494721        3
    52         6.5015877        1       161         4.1332143        3
    53         7.1349095        1       162         4.1600266        3
    54         8.0219729        1       163         4.5868872        3
    55         9.6344426        1       164         5.1853537        3
    56        10.6442840        1       165         5.3543922        3
    57        10.6994038        1       166         5.9140701        3
    58        10.9779520        1       167         6.1546204        3
    59        11.1916545        1       168         6.3669098        3
    60        12.0091899        1       169         6.8464093        3
    61        12.6798966        1       170         7.3995633        3
    62        12.7356783        1       171         9.8142222        3
    63        13.6536709        1       172        10.7454960        3
    64        17.4025459        1       173        10.9837984        3
    65        19.8825373        1       174        11.8828357        3
    66        26.2799460        1       175        12.4493718        3
    67        27.1090678        1       176        13.0922323        3
    68        34.3299766        1       177        18.7678319        3
    69        35.7010423        1       178        26.6245489        3
    70        47.0729358        1       179        33.4929097        3
    71        47.5839804        1       180        47.2576394        3
    72        63.8216086        1       181        66.3430136        3
    73        67.1502171        1       182        98.5254073        3
    74        98.5388208        1       183        98.5528668        3
    75        98.5660215        1       184       103.3021386        3
    76       103.3073453        1       185       103.3422641        3
    77       103.3465944        1       186       115.1459068        3
    78       114.9795815        1       187       116.7859083        3
    79       115.3947462        1       188       198.6528172        3
    80       117.4624194        1       189       224.8191974        3
    81       121.9496177        1       190       395.2983503        3
    82       198.5521910        1       191         0.2230769        4
    83       198.8213736        1       192         0.5491310        4
    84       216.3487814        1       193         0.7434709        4
    85       225.4501310        1       194         0.8651527        4
    86       395.8528396        1       195         1.5784353        4
    87       508.6564850        1       196         1.6914312        4
    88       895.1695601        1       197         2.0740165        4
    89         0.0079221        2       198         2.1343077        4
    90         0.0833684        2       199         2.2949292        4
    91         0.1772992        2       200         2.6888901        4
    92         0.2889655        2       201         3.7045268        4
    93         0.4025112        2       202         4.2040866        4
    94         0.6238815        2       203         4.2812839        4
    95         0.7347922        2       204         4.7442550        4
    96         0.7817862        2       205         5.8380544        4
    97         0.8922271        2       206         6.1351173        4
    98         1.0342243        2       207         6.3777738        4
    99         1.4233862        2       208         6.5015877        4
   100         1.5142276        2       209        10.6442840        4
   101         1.6382863        2       210        10.9779520        4
   102         2.0868633        2       211        12.0091899        4
   103         2.2130103        2       212        12.7356783        4
   104         2.2292019        2       213        26.2799460        4
   105         2.2378209        2       214        47.0729358        4
   106         2.5187746        2       215        98.5388208        4
   107         2.5985134        2       216       103.3073453        4
   108         3.4570755        2       217       114.9795815        4
   109         3.9494721        2       218       198.5521910        4
------------------------------------------------------------------------
  -20.6528175372721       -11.5045478255960       -1.30661729641986     
 -0.799361443581109      -0.546152730959037      -0.513476212028049     
 -0.513476212028017       6.112140974538347E-002  6.861286330165667E-002
  0.157441381800101       0.212911590579378       0.223076898045372     
  0.300208879232054       0.334911668084472       0.435815396089603     
  0.512727778431794       0.549130990315332       0.712954916048498     
  0.743470875132497       0.823421992444360       0.865152727909822     
  0.875550868912384        1.12714922090240        1.37659498855880     
   1.57843528112574        1.60528215808249        1.69143123041897     
   1.91144010393303        1.97656689268275        2.07401650531229     
   2.13430768274807        2.23637446227777        2.29492917861955     
   2.43554159984321        2.61171440326476        2.68889006509885     
   3.03543841990534        3.70452677978479        3.90487164486411     
   4.16448920251167        4.20408661893063        4.28128391163158     
   4.43900450469561        4.74425503718621        4.75117829033022     
   5.31155265442671        5.83805444875490        6.08069064923962     
   6.13511732850877        6.21168407066681        6.37777377888747     
   6.50158768958128        7.13490952005398        8.02197288903053     
   9.63444263430452        10.6442839690297        10.6994037923131     
   10.9779520402163        11.1916545403159        12.0091899253691     
[...]
 Convergence information after    14 iterations: 
 Largest element of residual vector : -0.84696655E-06.
 Largest element of DIIS residual   : -0.62562518E-06.
 Convergence information after    15 iterations: 
 Largest element of residual vector :  0.78273866E-06.
 Largest element of DIIS residual   :  0.50292567E-06.
 Convergence information after    16 iterations: 
 Largest element of residual vector :  0.38210425E-06.
 Largest element of DIIS residual   :  0.21981685E-06.
 Convergence information after    17 iterations: 
 Largest element of residual vector :  0.21165103E-06.
 Largest element of DIIS residual   :  0.89074825E-07.
 Perturbed amplitude equations converged in    17 iterations.
  Dominant contributions to perturbed wavefunction:
    7    7  140   28   0.2179857873 ABAB
    7    7   28  140   0.2179857873 ABAB
    7    7  140   39  -0.2164131688 ABAB
    7    7   39  140  -0.2164131688 ABAB
    7    7  140   45  -0.2153613058 ABAB
    7    7   45  140  -0.2153613058 ABAB
    7    7  140   22  -0.2060921822 ABAB
    7    7   22  140  -0.2060921822 ABAB
    7    7  140   29  -0.1593568372 ABAB
    7    7   29  140  -0.1593568372 ABAB
    7    7  140   57   0.1557164313 ABAB
    7    7   57  140   0.1557164313 ABAB
    7    0   35    0  -0.1550522436 AA  
    7    7  140   54   0.1531531485 ABAB
    7    7   54  140   0.1531531485 ABAB
    7    6   28   89   0.1362394776 ABAB
    6    7   89   28   0.1362394776 ABAB
    7    6   39   89  -0.1362220674 ABAB
    6    7   89   39  -0.1362220674 ABAB
    7    6   45   89  -0.1351187270 ABAB
  norm of converged amps    1.74390151781344     
 Starting iterative solution of the perturbed Lambda equations.
 The DIIS procedure is used to accelerate convergence.
 Convergence criterion is 10**(-7).
 Maximum number of iterations is 100.
 Convergence information after     1 iterations: 
 Largest element of residual vector :  0.75659780E-01.
 Largest element of DIIS residual   :  0.75659780E-01.
 Convergence information after     2 iterations: 
 Largest element of residual vector :  0.14440555E-01.
 Largest element of DIIS residual   :  0.10808578E-01.
 Convergence information after     3 iterations: 
 Largest element of residual vector : -0.64489196E-02.
 Largest element of DIIS residual   : -0.60866456E-02.
 Convergence information after     4 iterations: 
 Largest element of residual vector : -0.38857975E-02.
 Largest element of DIIS residual   : -0.34734095E-02.
 Convergence information after     5 iterations: 
 Largest element of residual vector : -0.31531142E-02.
 Largest element of DIIS residual   : -0.23198088E-02.
 Convergence information after     6 iterations: 
 Largest element of residual vector : -0.15117218E-02.
 Largest element of DIIS residual   : -0.67150670E-03.
 Convergence information after     7 iterations: 
 Largest element of residual vector : -0.68344981E-03.
 Largest element of DIIS residual   : -0.30696206E-03.
 Convergence information after     8 iterations: 
 Largest element of residual vector : -0.21001606E-03.
 Largest element of DIIS residual   : -0.13701929E-03.
 Convergence information after     9 iterations: 
 Largest element of residual vector : -0.86404705E-04.
 Largest element of DIIS residual   : -0.37517839E-04.
 Convergence information after    10 iterations: 
 Largest element of residual vector : -0.31837882E-04.
 Largest element of DIIS residual   : -0.14238308E-04.
 Convergence information after    11 iterations: 
 Largest element of residual vector : -0.65090378E-05.
 Largest element of DIIS residual   : -0.42007463E-05.
 Convergence information after    12 iterations: 
 Largest element of residual vector : -0.19057340E-05.
 Largest element of DIIS residual   : -0.16461994E-05.
 Convergence information after    13 iterations: 
 Largest element of residual vector : -0.14526956E-05.
 Largest element of DIIS residual   : -0.12524087E-05.
 Convergence information after    14 iterations: 
 Largest element of residual vector : -0.63248817E-06.
 Largest element of DIIS residual   : -0.40332583E-06.
 Convergence information after    15 iterations: 
 Largest element of residual vector :  0.49262643E-06.
 Largest element of DIIS residual   :  0.33686989E-06.
 Convergence information after    16 iterations: 
 Largest element of residual vector :  0.25062106E-06.
 Largest element of DIIS residual   :  0.15928169E-06.
 Convergence information after    17 iterations: 
 Largest element of residual vector :  0.14466164E-06.
 Largest element of DIIS residual   :  0.72724377E-07.
 Perturbed Lambda equations converged in    17 iterations.
  Dominant contributions to perturbed wavefunction:
    7    7  140   28   0.1882829195 ABAB
    7    7   28  140   0.1882829195 ABAB
    7    7  140   45  -0.1836272676 ABAB
    7    7   45  140  -0.1836272676 ABAB
    7    7  140   39  -0.1831621475 ABAB
    7    7   39  140  -0.1831621475 ABAB
    7    7  140   22  -0.1756912780 ABAB
    7    7   22  140  -0.1756912780 ABAB
    7    7  140   29  -0.1331583832 ABAB
    7    7   29  140  -0.1331583832 ABAB
    7    7  140   54   0.1318612514 ABAB
    7    7   54  140   0.1318612514 ABAB
    7    7  140   57   0.1316905592 ABAB
    7    7   57  140   0.1316905592 ABAB
    7    6   28   89   0.1158344848 ABAB
    6    7   89   28   0.1158344848 ABAB
    7    6   45   89  -0.1136590089 ABAB
    6    7   89   45  -0.1136590089 ABAB
    7    6   39   89  -0.1136472648 ABAB
    6    7   89   39  -0.1136472648 ABAB
        The DBOC first-order density matrix is being calculated 
             (Symmetry block 3, perturbation   2)
 term   3.25735298899821     
 final tnorm  0.818202475558606     
  norm contr. I: |<0|L dT/dx|0>|^2   0.000000000000000E+000
  norm contr. II: <0|[nabla(1+L)e-T][nabla e^T]|0>   3.25735298899821     
  total norm contribution   3.25735298899821     
 oo  7.534220157938218E-003
 vv  -21.6756323682870     
 vo  6.356030848954929E-002
  Correlated perturbed 1-el contribution to DBOC  -21.6045378396395       cm**-1
  SUM_I |dc_I/dx|^2 contribution to DBOC   10.8971446547315       cm**-1
 
 
  The total diagonal Born-Oppenheimer correction (DBOC) is:      0.0038693163 a.u.
  The total diagonal Born-Oppenheimer correction (DBOC) is:        849.216760 cm-1
 
 Total CC energy including DBOC  -113.118614979188     
 First-order density matrix is being calculated  (Symmetry block 3, perturbation   2)
 Calculation of the contributions of <pq||rs> to dI(i,j)/dx required   3.2 seconds.
 Calculation of the contributions of <pq||rs> to dI(a,b)/dx required  15.9 seconds.
 Calculation of the contributions of <pq||rs> to dI(i,a)/dx required   9.3 seconds.
 First-order Z-vector equations are solved for 1 perturbation.
 Convergence reached after  19 iterations.
        U*G(pq,rs) contribution is being calculated
             (Symmetry block 3, perturbation   2)

 CCSD contribution to force constants 

        0.0000000000        0.0000000000        0.0000000000
        0.0000000000        0.0000000000        0.0000000000
        0.0000000000        0.0000000000        0.0000000000
        0.0000000000        0.0000000000        0.0000000000
        0.0000000000        0.0000000000        0.0000000000
        0.0000000000        0.0000000000        0.0000000000
        0.0000000000        0.0000000000        0.0000000000
        0.0000000000        0.0000000000        0.0000000000
        0.0000000000        0.0000000000        0.0000000000
        0.0000000000        0.0000000000        0.0000000000
        0.0000000000        0.0000000000        0.0000000000
        0.0000000000       -2.4840252099        2.4840252099

 CCSD contribution to dipole derivatives 

        0.0000000000        0.0000000000        0.0000000000
        0.0000000000        0.0000000000        0.0000000000
        0.0000000000        0.0000000000        0.0000000000
        0.0000000000        0.0000000000       -0.0566860297
        0.0000000000        0.0000000000        0.0000000000
        0.0000000000        0.0000000000        0.0000000000
 @CHECKOUT-I, Total execution time (CPU/WALL):     1308.30/     520.35 seconds.
--executable xsdcc finished with status     0 in      520.58 seconds (walltime).
 --invoking executable--
/nfs/workspaces/public/cfour_mpi/bin/xanti
 @GETMEM-I,  Allocated    3814 MB of main memory.
 CCSD MO derivative gammas will be sorted to Mulliken order.
 @CHECKOUT-I, Total execution time (CPU/WALL):       13.02/      26.54 seconds.
--executable xanti finished with status     0 in       26.73 seconds (walltime).
 --invoking executable--
/nfs/workspaces/public/cfour_mpi/bin/xbcktrn
 @GETMEM-I,  Allocated    3814 MB of main memory.
 CCSD MO derivative gammas will be transformed to the AO basis.
 @CHECKOUT-I, Total execution time (CPU/WALL):       25.21/      10.31 seconds.
--executable xbcktrn finished with status     0 in       10.37 seconds (walltime).
 --invoking executable--
/nfs/workspaces/public/cfour_mpi/bin/xvdint
 @GETMEM-I,  Allocated    3814 MB of main memory.
 One- and two-electron integral derivatives are calculated
 for RHF-CC/MBPT hessians and dipole derivatives.
 Spherical gaussians are used.
  magnet F F
                    8722  records have been written to the Sort file.
  Total length of Sort file :             178609116  words.
 Evaluation of 2el integral derivatives

                      Two-electron integral gradient
                      ------------------------------

                         C #1 z     0.0000000000
                         O #2 z     0.0000000000


 C #1       0.0000000000            0.0393411749            0.0000000000
 O #2       0.0000000000           -0.0393411749            0.0000000000


 Evaluation of 2e integral derivatives required  367.27 seconds.
  contribution to Hessian
        0.0000000000        0.0000000000        0.0000000000
        0.0000000000        0.0393411749       -0.0393411749
 @CHECKOUT-I, Total execution time (CPU/WALL):      367.26/      91.17 seconds.
--executable xvdint finished with status     0 in       91.34 seconds (walltime).
 --invoking executable--
/nfs/workspaces/public/cfour_mpi/bin/xanti
 @GETMEM-I,  Allocated    3814 MB of main memory.
 CCSD MO gammas will be sorted to Mulliken order.
 @CHECKOUT-I, Total execution time (CPU/WALL):       17.49/      59.36 seconds.
--executable xanti finished with status     0 in       62.28 seconds (walltime).
 --invoking executable--
/nfs/workspaces/public/cfour_mpi/bin/xbcktrn
 @GETMEM-I,  Allocated    3814 MB of main memory.
 CCSD MO gammas will be transformed to the AO basis.
 @CHECKOUT-I, Total execution time (CPU/WALL):       49.19/      11.90 seconds.
--executable xbcktrn finished with status     0 in       11.97 seconds (walltime).
 --invoking executable--
/nfs/workspaces/public/cfour_mpi/bin/xvdint
 @GETMEM-I,  Allocated    3814 MB of main memory.
 One- and two-electron integral derivatives are calculated
 for RHF-CC/MBPT hessians and dipole derivatives.
 Spherical gaussians are used.
  magnet F F

                     Kinetic energy integral gradient
                     --------------------------------

                         C #1 z    -0.6269887991
                         O #2 z     0.6269887991


 C #1       0.0000000000            0.0000000000           -0.6269887991
 O #2       0.0000000000            0.0000000000            0.6269887991



                   Nuclear attraction integral gradient
                   ------------------------------------

                         C #1 z    14.9062789505
                         O #2 z   -14.9062789505


 C #1       0.0000000000            0.0000000000           14.9062789505
 O #2       0.0000000000            0.0000000000          -14.9062789505



                      Reorthonormalization gradient
                      -----------------------------

                         C #1 z     0.0000000000
                         O #2 z     0.0000000000


 C #1       0.0000000000            0.0000000000            0.0000000000
 O #2       0.0000000000            0.0000000000            0.0000000000



                     Kinetic energy integral Hessian
                     -------------------------------


           Symmetry 1

           C #1 z      O #2 z

 C #1 z    0.652627
 O #2 z   -0.652627    0.652627


           Symmetry 2

           C #1 x      O #2 x

 C #1 x   -0.515243
 O #2 x    0.515243   -0.515243


           Symmetry 3

           C #1 y      O #2 y

 C #1 y   -0.515243
 O #2 y    0.515243   -0.515243




           C #1 x      C #1 y      C #1 z      O #2 x      O #2 y      O #2 z

 C #1 x   -0.515243
 C #1 y    0.000000   -0.515243
 C #1 z    0.000000    0.000000    0.652627

 O #2 x    0.515243    0.000000    0.000000   -0.515243
 O #2 y    0.000000    0.515243    0.000000    0.000000   -0.515243
 O #2 z    0.000000    0.000000   -0.652627    0.000000    0.000000    0.652627




                   Nuclear attraction integral Hessian
                   -----------------------------------


           Symmetry 1

           C #1 z      O #2 z

 C #1 z   -9.166583
 O #2 z    9.166583   -9.166583


           Symmetry 2

           C #1 x      O #2 x

 C #1 x    8.552290
 O #2 x   -8.552290    8.552290


           Symmetry 3

           C #1 y      O #2 y

 C #1 y    8.552290
 O #2 y   -8.552290    8.552290




           C #1 x      C #1 y      C #1 z      O #2 x      O #2 y      O #2 z

 C #1 x    8.552290
 C #1 y    0.000000    8.552290
 C #1 z    0.000000    0.000000   -9.166583

 O #2 x   -8.552290    0.000000    0.000000    8.552290
 O #2 y    0.000000   -8.552290    0.000000    0.000000    8.552290
 O #2 z    0.000000    0.000000    9.166583    0.000000    0.000000   -9.166583




                Highest order reorthonormalization Hessian
                ------------------------------------------


           Symmetry 1

           C #1 z      O #2 z

 C #1 z    0.000000
 O #2 z    0.000000    0.000000


           Symmetry 2

           C #1 x      O #2 x

 C #1 x    0.000000
 O #2 x    0.000000    0.000000


           Symmetry 3

           C #1 y      O #2 y

 C #1 y    0.000000
 O #2 y    0.000000    0.000000




           C #1 x      C #1 y      C #1 z      O #2 x      O #2 y      O #2 z




                Electronic contributions to dipole moment
                -----------------------------------------

                               au             Debye

                    z     -0.74532516     -1.89442792

  Conversion factor used: 1 a.u. =   2.54174691 Debye 



   Electronic contributions to static part of dipole moment derivatives
   --------------------------------------------------------------------


                     Total dipole moment derivatives
                     -------------------------------


           Symmetry 1
                              Ez

               C #1 z    -5.61542638
               O #2 z    -8.38457362

           Symmetry 2
                              Ex

               C #1 x    -5.67186529
               O #2 x    -8.32813471

           Symmetry 3
                              Ey

               C #1 y    -5.67186529
               O #2 y    -8.32813471



                       Ex          Ey          Ez

      C #1    x   -5.671865    0.000000    0.000000
      C #1    y    0.000000   -5.671865    0.000000
      C #1    z    0.000000    0.000000   -5.615426

      O #2    x   -8.328135    0.000000    0.000000
      O #2    y    0.000000   -8.328135    0.000000
      O #2    z    0.000000    0.000000   -8.384574

 Evaluation of 1e integral derivatives required    1.65 seconds.
                    8815  records have been written to the Sort file.
  Total length of Sort file :             180513570  words.
 Evaluation of 2el integral derivatives

                      Two-electron integral gradient
                      ------------------------------

                         C #1 z    -7.8418933230
                         O #2 z     7.8418933230


 C #1       0.0000000000            0.0000000000           -7.8418933230
 O #2       0.0000000000            0.0000000000            7.8418933230


 Evaluation of 2e integral derivatives required  696.41 seconds.

                            Molecular gradient
                            ------------------

                         C #1 z     0.6249079072
                         O #2 z    -0.6249079072


 C #1       0.0000000000            0.0000000000            0.6249079072
 O #2       0.0000000000            0.0000000000           -0.6249079072


  Molecular gradient norm 0.884E+00

                            Molecular hessian
                            -----------------


           Symmetry 1

           C #1 z      O #2 z

 C #1 z   20.865125
 O #2 z  -20.865125   20.865125


           Symmetry 2

           C #1 x      O #2 x

 C #1 x    2.710793
 O #2 x   -2.710793    2.710793


           Symmetry 3

           C #1 y      O #2 y

 C #1 y    2.710793
 O #2 y   -2.710793    2.710793




           C #1 x      C #1 y      C #1 z      O #2 x      O #2 y      O #2 z

 C #1 x    2.710793
 C #1 y    0.000000    2.710793
 C #1 z    0.000000    0.000000   20.865125

 O #2 x   -2.710793    0.000000    0.000000    2.710793
 O #2 y    0.000000   -2.710793    0.000000    0.000000    2.710793
 O #2 z    0.000000    0.000000  -20.865125    0.000000    0.000000   20.865125




                           Total dipole moment
                           -------------------

                               au             Debye

                    z      0.40369942      1.02610176

  Conversion factor used: 1 a.u. =   2.54174691 Debye 



                     Total dipole moment derivatives
                     -------------------------------


           Symmetry 1
                              Ez

               C #1 z     0.61680427
               O #2 z    -0.61680427

           Symmetry 2
                              Ex

               C #1 x     0.14714749
               O #2 x    -0.14714749

           Symmetry 3
                              Ey

               C #1 y     0.14714749
               O #2 y    -0.14714749



                       Ex          Ey          Ez

      C #1    x    0.147147    0.000000    0.000000
      C #1    y    0.000000    0.147147    0.000000
      C #1    z    0.000000    0.000000    0.616804

      O #2    x   -0.147147    0.000000    0.000000
      O #2    y    0.000000   -0.147147    0.000000
      O #2    z    0.000000    0.000000   -0.616804

 @CHECKOUT-I, Total execution time (CPU/WALL):      698.04/     117.45 seconds.
--executable xvdint finished with status     0 in      117.62 seconds (walltime).
 --invoking executable--
/nfs/workspaces/public/cfour_mpi/bin/xjoda
  @GTFLGS-I, Hessian will be transformed to curvilinear coordinates.
  @GTFLGS-I, Hessian will be transformed to curvilinear coordinates.
  igrd and ihes are                      0                     1
  gradient from JOBARC 
   0.000000000000000   0.000000000000000   0.624907907179414
   0.000000000000000   0.000000000000000  -0.624907907179414
 
  @PROJFCM-I, Projecting force constant matrix onto totally symmetric subspace.
  Largest difference between matrix elements of symmetrized
  and unsymmetrized FCM :     0.5915268275E-12.
  read isotopes from ZMAT file 
 
  Summary of diagonal Born-Oppenheimer correction at the correlated level
  The total diagonal Born-Oppenheimer correction (DBOC) is:      0.0038693163 a.u.
  The total diagonal Born-Oppenheimer correction (DBOC) is:        849.216760 cm-1
  The total diagonal Born-Oppenheimer correction (DBOC) is:            10.159 kJ/mole
  hellooooooo 
  readis is  F
 
 @CHECKOUT-I, Total execution time (CPU/WALL):        0.01/       0.05 seconds.
--executable xjoda finished with status     0 in        0.08 seconds (walltime).
  The final electronic energy is      -113.118614979188123 a.u. 
  This computation required                         4594.59 seconds (walltime).
