 --invoking executable--
/nfs/workspaces/public/cfour_mpi/bin/xjoda


   *************************************************************************
         <<<     CCCCCC     CCCCCC   |||     CCCCCC     CCCCCC   >>>
       <<<      CCC        CCC       |||    CCC        CCC         >>>
      <<<      CCC        CCC        |||   CCC        CCC            >>>
    <<<        CCC        CCC        |||   CCC        CCC              >>>
      <<<      CCC        CCC        |||   CCC        CCC            >>>
       <<<      CCC        CCC       |||    CCC        CCC         >>>
         <<<     CCCCCC     CCCCCC   |||     CCCCCC     CCCCCC   >>>
   *************************************************************************

     ****************************************************************
     * CFOUR Coupled-Cluster techniques for Computational Chemistry *
     ****************************************************************
 

   Department of Chemistry                Institut fuer Physikalische Chemie
   University of Florida                  Universitaet Mainz
   Gainesville, FL 32611, USA             D-55099 Mainz, Germany

   Department of Chemistry                Fakultaet fuer Chemie und Biowiss.
   Johns Hopkins University               Karlsruher Institut fuer Technologie
   Baltimore, MD 21218, USA               D-76131 Karlsruhe, Germany

   Department of Chemistry                Department of Physical Chemistry
   Southern Methodist University          Eotvos Lorand University
   Dallas, TX 75275, USA                  H-1053 Budapest, Hungary

 
                       Version 2.1
 
                     vincent.theory.phys.ucl.ac.uk                     
                     Mon  3 Mar 18:48:13 GMT 2025                      
                     integer*8 version is running
 
********************************************************************************
*                          Input from ZMAT file                                *
********************************************************************************
Carbon Monoxide DBOC calculation                                                
C                                                                               
O 1 r                                                                           
                                                                                
r=1.706896551724138                                                             
                                                                                
                                                                                
*CFOUR(CALC=CCSD,BASIS=AUG-PCVQZ,SCF_CONV=10                                    
CC_CONV=14,DBOC=ON,MEMORY=500000000                                             
ZFIELD=-200)                                                                    
                                                                                
%isotopes                                                                       
12                                                                              
18                                                                              
********************************************************************************
  @GTFLGS-I, Hessian will be transformed to curvilinear coordinates.
    -------------------------------------------------------------------
                    CFOUR Control Parameters 
    -------------------------------------------------------------------
        External           Internal           Value            Units
          Name               Name
    -------------------------------------------------------------------
       ABCDTYPE             IABCDT         STANDARD    [  0]    ***   
       ANHARMONIC           IANHAR         OFF         [  0]    ***   
       ANH_ALGORIT          IANALG         STANDARD    [  0]    ***   
       ANH_DERIVAT          IANDER         SECOND      [  1]    ***   
       ANH_MODE             ANHMOD         VIBRATION   [  0]    ***   
       ANH_STEPSIZ          ICUBST             50000          x 10-6  
       ANH_SYMMETR          IANHSM         ABELIAN     [  0]    ***   
       AO_LADDERS           IAOLAD         SINGLEPASS  [  1]    ***   
       AV_SCF               IAVSCF         OFF         [  0]    ***   
       BASIS                IBASIS         AUG-PCVQZ   [ 52]    ***   
       BOTHVECTORS          BOTHVC         OFF         [  0]    ***   
       BOX_POTENT           IPIAB          OFF         [  0]    ***   
       BREIT                IBREIT         OFF         [  0]    ***   
       BRUCK_CONV           IBRTOL          10D-  4             ***   
       BRUECKNER            IBRKNR         OFF         [  0]    ***   
       BUFFERSIZE           IBUFFS              4096            ***   
       CACHE_RECS           ICHREC             10               ***   
       CALCLEVEL            ICLLVL         CCSD        [ 10]    ***   
       CCORBOPT             ICCORB         OFF         [  0]  x 0.01  
       CC_CONV              ICCCNV          10D- 14             ***   
       CC_EXPORDER          ICCEOR              5               ***   
       CC_EXTRAPOL          ICCEXT         DIIS        [  1]    ***   
       CC_GUESS             ICCGES         MP2         [  0]    ***   
       CC_MAXCYC            ICCCYC            100              cycles 
       CC_PROGRAM           ICCPRO         VCC         [  0]    ***   
       CHARGE               ICHRGE              0               ***   
       CHOLESKY             ICHOLE         OFF         [  0]    ***   
       CIS_CONV             ICISTL              5               ***   
       COMM_SIZE            IPSIZE            ***               ***   
       CONSTANT             ICONST         OLD         [  1]    ***   
       CONTINUUM            ICONTU         NONE        [  0]    ***   
       CONTRACTION          ICNTYP         GENERAL     [  1]    ***   
       COORDINATES          ICOORD         INTERNAL    [  0]    ***   
       CPHF_CONVER          ICPHFT          10D- 16             ***   
       CPHF_MAXCYC          ICPHFC             64              cycles 
       CUBIC                ICUBIC         OFF         [  0]    ***   
       CURVILINEAR          ICURVY         ON          [  1]    ***   
       DBOC                 IDBOC          ON          [  1]    ***   
       DCT                  IDCT           OFF         [  0]    ***   
       DERIV_LEV            IDRLVL         SECOND      [  2]    ***   
       DEVMEM_SIZE          IDVMEM          50000000           MByte  
       DIAG_MRCC            IEOMST          10D-  0             ***   
       DIFF_TYPE            IDIFTY         RELAXED     [  0]    ***   
       DIRECT               IDIRCT         OFF         [  0]    ***   
       DROPMO               IDRPMO      NONE         
       ECP                  IECP           OFF         [  0]    ***   
       EIGENVECTOR          IVEC                1               ***   
       EL_ANHARM            IELANH         OFF         [  0]    ***   
       EOMFOLLOW            IEOMSR         ENERGY      [  0]    ***   
       EOMIP                IEOMIP         OFF         [  0]    ***   
       EOMLEVEL             HBARFM         SAME        [  0]    ***   
       EOM_MRCC             IMRCCE         NEW         [  1]    ***   
       EOM_NONIT            EOMNON         OFF         [  0]    ***   
       EOM_NSING            IEOMSI          10D-  0             ***   
       EOM_NSTATES          IMRCCD         DAVIDSON    [  0]    ***   
       EOM_NTRIP            IEOMTR          10D-  0             ***   
       EOM_ORDER            IEXORD         ENERGY      [  0]    ***   
       EOM_PROPSTA          IEOMST              0               ***   
       ESTATE_CONV          IEXTOL          10D-  5             ***   
       ESTATE_DIAG          IEXDIG         ITERATIVE   [  0]    ***   
       ESTATE_LOCK          IESLOC         ON          [  1]    ***   
       ESTATE_MAXC          IEXMXC             40               ***   
       ESTATE_PROP          IEXPRP         OFF         [  0]    ***   
       EVAL_HESS            IRECAL              0            # of cyc.
       EXCITATION           IEXCIT              0               ***   
       EXCITE               IEXCIT         NONE        [  0]    ***   
       EXTERN_POT           IEXPOT         OFF         [  0]    ***   
       FCGRADNEW            IFCGNW         OFF         [  0]    ***   
       FC_FIELD             IFINFC              0             x 10-6  
       FD_CALTYPE           IFDCAL         GRADONLY    [  0]    ***   
       FD_PROJECT           IFDPRJ         OFF         [  1]    ***   
       FD_STEPSIZE          IDISFD              0            10-4 bohr
       FD_USEGROUP          IFDGRP         FULL        [  0]    ***   
       FILE_RECSIZ          IFLREC              4096           words  
       FINITE_PERT          IFIPER              0             x 10-6  
       FIXGEOM              IFIXGM         OFF         [  0]    ***   
       FOCK                 IFOCK          AO          [  1]    ***   
       FREQ_ALGORI          IVIALG         STANDARD    [  0]    ***   
       FROZEN_CORE          IFROCO         OFF         [  0]    ***   
       GAMMA_ABCD           IGABCD         STORE       [  0]    ***   
       GAMMA_ABCI           IGABCI         STORE       [  0]    ***   
       GENBAS_1             IGNBS1              0               ***   
       GENBAS_2             IGNBS2              0               ***   
       GENBAS_3             IGNBS3              0               ***   
       GENBAS_4             IGNBS4              0               ***   
       GEO_CONV             ICONTL              5              H/bohr 
       GEO_MAXCYC           IOPTCY             50               ***   
       GEO_MAXSTEP          IMXSTP            300            millibohr
       GEO_METHOD           INR            SINGLE_POINT[  5]    ***   
       GIAO                 IGIAO          OFF         [  1]    ***   
       GIMIC                IGIMIC         OFF         [  0]    ***   
       GRID                 IGRID          OFF         [  0]    ***   
       GRID_ALGO            IGALGO         SERIAL      [  0]    ***   
       GUESS                IGUESS         MOREAD      [  0]    ***   
       HBAR                 IHBAR          OFF         [  0]    ***   
       HESS_TYPE            IHESTP         SCF         [  0]    ***   
       HF2_FILE             IHF2Fl         USE         [  1]    ***   
       HFSTABILITY          ISTABL         OFF         [  0]    ***   
       INCORE               INCORE         OFF         [  0]    ***   
       INPUT_MRCC           IMRCC          ON          [  1]    ***   
       INTEGRALS            INTTYP         VMOL        [  1]    ***   
       JODA_PRINT           IJPRNT              0               ***   
       KEYWORD_OUT          IDMPKW         NO          [  0]    ***   
       LINDEP_TOL           ILINDP              8               ***   
       LINEQ_CONV           IZTACN          10D-  7           cycles  
       LINEQ_EXPOR          ILMAXD              5               ***   
       LINEQ_MAXCY          ILMAXC            100               ***   
       LINEQ_TYPE           ILTYPE         DIIS        [  1]    ***   
       LOCK_ORBOCC          ILOCOC         OFF         [  0]    ***   
       MEMORY_SIZE          IMEMSZ         500000000           words  
       MEM_UNIT             IMEMU          INTEGERWORDS[  0]    ***   
       MRCC                 IMRCCC         OFF         [  0]    ***   
       MULTIPLICTY          IMULTP              1               ***   
       NACOUPLING           IVCOUP         OFF         [  0]    ***   
       NEGEVAL              IDIE           ABORT       [  0]    ***   
       NEWNORM              INEWNO         OFF         [  0]    ***   
       NON-HF               INONHF         OFF         [  0]    ***   
       NTOP_TAMP            ITOPT2             15               ***   
       NUC_MODEL            INUCMO         POINT       [  0]    ***   
       OCCUPATION           IOCCU   ESTIMATED BY SCF 
       OPEN-SHELL           IOPEN          SPIN-ORBITAL[  0]    ***   
       OPTVIB               IOPTVB         OFF         [  0]    ***   
       ORBITALS             IORBTP         STANDARD    [  0]    ***   
       PARALLEL             IPARAL         ON          [  1]    ***   
       PARA_INT             IPINTS         ON          [  1]    ***   
       PARA_PRINT           IPPRIN              0               ***   
       PERT_ORB             IPTORB         STANDARD    [  0]    ***   
       POINTS               IGRDFD              0               ***   
       PRINT                IPRNT               0               ***   
       PROPS                IPROPS         OFF         [  0]    ***   
       PROP_INTEGR          IINTYP         INTERNAL    [  0]    ***   
       PSI                  IPSI           OFF         [  0]    ***   
       QC_ALG               IQCALG         FLM         [  0]    ***   
       QC_LINALG            IQCLIN         TRIDIAG     [  2]    ***   
       QC_MAXCYC            IQCMAX          10D-100           cycles  
       QC_MAXSCFCY          IQCMSC          10D- 15           cycles  
       QC_RTRUST            IQCRTR          10D-  0           x 10-3  
       QC_SKIPSCF           IQCSKI         OFF         [  0]    ***   
       QC_START             IQCSTA          10D-  1             ***   
       QRHFGUESS            IQGUES         OFF         [  0]    ***   
       QUARTIC              IQUART         OFF         [  0]    ***   
       RAMAN_INT            IRAMIN         OFF         [  0]    ***   
       RAMAN_ORB            IRAMRE         UNRELAXED   [  0]    ***   
       RDO                  IRDOFM         ON          [  1]    ***   
       REDUCE_REPR          REDREP         Ir          [  0]    ***   
       REFERENCE            IREFNC         RHF         [  0]    ***   
       RELATIVIST           IRELAT         OFF         [  0]    ***   
       RELAX_DENS           IRDENS         ON          [  1]    ***   
       RESET_FLAGS          IRESET         OFF         [  0]    ***   
       RESTART_CC           ICCRES         OFF         [  0]    ***   
       ROT_EVEC             ROTVEC              0               ***   
       SAVE_INTS            ISVINT         OFF         [  0]    ***   
       SCALE_ON             ISTCRT              0               ***   
       SCF_CONV             ISCFCV          10D- 10             ***   
       SCF_DAMPING          IDAMP               0             x 10-3  
       SCF_EXPORDE          IRPPOR              6               ***   
       SCF_EXPSTAR          IRPPLS              8               ***   
       SCF_EXTRAPO          IRPP           ON          [  1]    ***   
       SCF_MAXCYC           ISCFCY            150              cycles 
       SCF_NOSTOP           ISCFST         OFF         [  0]    ***   
       SCF_PRINT            ISCFPR              0               ***   
       SCF_PROG             ISCFPR         SCF         [  0]    ***   
       SD_FIELD             IFINSD              0             x 10-6  
       SOPERT               IPERSO         OFF         [  0]    ***   
       SPHERICAL            IDFGHI         ON          [  1]    ***   
       SPINORBIT            ISOCAL         OFF         [  0]    ***   
       SPINROTATIO          ISRCON         OFF         [  0]    ***   
       SPIN_FLIP            ISPFLP         OFF         [  0]    ***   
       SPIN_ORBIT           ISPORB         OFF         [  0]    ***   
       SPIN_SCAL            ISCSMP         OFF         [  0]    ***   
       STEEPSCALE           ISTPSC              1000          x 10-3  
       SUBGROUP             ISUBGP         DEFAULT     [  0]    ***   
       SUBGRPAXIS           ISBXYZ         X           [  0]    ***   
       SYMMETRY             ISYM           ON          [  0]    ***   
       SYM_CHECK            ISYMCK         OVERRIDE    [  1]    ***   
       T3_EXTRAPOL          IT3EXT         OFF         [  0]    ***   
       T4_EXTRAPOL          IT4EXP         OFF         [  0]    ***   
       TAMP_SUM             IEVERY              5               ***   
       TESTSUITE            ITESTS         OFF         [  0]    ***   
       THERMOCH             ITHERM         OFF         [  0]    ***   
       TOL_CHOLESK          ITOLCH          10D-  4             ***   
       TRANGRAD             IRESRM         OFF         [  0]    ***   
       TRANS_INV            ITRAIN         IGNORE      [  1]    ***   
       TREAT_PERT           ITREAT         SIMULTANEOUS[  0]    ***   
       TRIP_ALGORI          ITRALG         NORMAL      [  0]    ***   
       UIJ_THRESHO          IUIJTH              1               ***   
       UNITS                IUNITS         ANGSTROM    [  0]    ***   
       UNOS                 IUNOS          OFF         [  0]    ***   
       UPDATE_HESS          IHUPDT         ON          [  1]    ***   
       VIBPHASE             ISETPH         STANDARD    [  0]    ***   
       VIBRATION            IVIB           ANALYTIC    [  1]    ***   
       VIB_ALGORIT          IGEALG         STANDARD    [  0]    ***   
       VNATORB              IVNORB         OFF         [  0]    ***   
       VTRAN                IVTRAN         FULL/PARTIAL[  0]    ***   
       XFIELD               IXEFLD              0             x 10-6  
       XFORM_TOL            IXFTOL          10D- 11             ***   
       YFIELD               IYEFLD              0             x 10-6  
       ZFIELD               IZEFLD            ***             x 10-6  
       ZSCALE_EXP           IZEXPS         OFF         [  0]    ***   
    -------------------------------------------------------------------
   2 entries found in Z-matrix 
   Job Title : Carbon Monoxide DBOC calculation                                                
   There are  1 unique internal coordinates.
   Of these,  0 will be optimized.
   User supplied Z-matrix: 
--------------------------------------------------------------------------------
       SYMBOL    BOND      LENGTH    ANGLE     ANGLE     DIHED     ANGLE
                  TO      (ANGST)    WRT      (DEG)      WRT      (DEG)
--------------------------------------------------------------------------------
        C    
        O          1         r    
                  *Initial values for internal coordinates* 
                      Name             Value
                        r               1.7068965517
--------------------------------------------------------------------------------
  read isotopes from ZMAT file 
   Rotational constants (in cm-1): 
          0.8036329978             0.8036329978
   Rotational constants (in MHz): 
      24092.3145485746         24092.3145485746
********************************************************************************
   The full molecular point group is CXv .
   The largest Abelian subgroup of the full molecular point group is C2v .
   The computational point group is C2v .
********************************************************************************
--------------------------------------------------------------------------------
   Analysis of internal coordinates specified by Z-matrix 
--------------------------------------------------------------------------------
   *The nuclear repulsion energy is   14.881101478787878 a.u.
   *There is   1 degree of freedom within the tot. symm. molecular subspace.
   *Z-matrix requests optimization of   0 coordinates.
   *The optimization is constrained.
   *The following   1 parameters can have non-zero 
    derivatives within the totally symmetric subspace:
             r    [ 1]
   *The following   0 parameters are to be optimized:

   *The following coordinates must be varied in an  unconstrained optimization.
             r    [ 1]
--------------------------------------------------------------------------------


 ----------------------------------------------------------------
         Coordinates used in calculation (QCOMP) 
 ----------------------------------------------------------------
 Z-matrix   Atomic            Coordinates (in bohr)
  Symbol    Number           X              Y              Z
 ----------------------------------------------------------------
     C         6        -0.00000000     0.00000000     1.93530449
     O         8         0.00000000     0.00000000    -1.29026319
 ----------------------------------------------------------------
 
   Interatomic distance matrix (Angstroms) 
 
                 C             O    
                [ 1]        [ 2]
  C    [ 1]     0.00000
  O    [ 2]     1.70690     0.00000
 rotcon2
   Rotational constants (in cm-1): 
          0.8036329978             0.0000000000
   Rotational constants (in MHz): 
      24092.3145485746             0.0000000000
  ECPDATA file not present.   Using default ECPDATA. 
  @GTFLGS-I, Hessian will be transformed to curvilinear coordinates.
  There are  218 basis functions.
 @CHECKOUT-I, Total execution time (CPU/WALL):        0.18/       0.27 seconds.
--executable xjoda finished with status     0 in        0.32 seconds (walltime).
 --invoking executable--
/nfs/workspaces/public/cfour_mpi/bin/xvmol
 SERIAL VERSION OF MOLECULE STARTED
********************************************************************************
                    INPUT FROM MOL FILE
********************************************************************************
INTGRL        1    0    1    0    0    0    0    0    0                         
         *** CFOUR Program System (Release V0.1) ***                            
Carbon Monoxide DBOC calculation                                                
    2    2 X  Y       0.10E-08              0    0                              
   9999.00      3.00                                                            
          6.00000000    1    5    1    1    1    1    1                         
C #1  -0.000000000000000   0.000000000000000   1.935304494630955                
   16    9                                                                      
   33980.0000000000       9.100000000000000E-005 -1.900000000000000E-005        
  0.000000000000000E+000  0.000000000000000E+000  0.000000000000000E+000        
  0.000000000000000E+000  0.000000000000000E+000  0.000000000000000E+000        
  0.000000000000000E+000                                                        
   5089.00000000000       7.040000000000000E-004 -1.510000000000000E-004        
  0.000000000000000E+000  0.000000000000000E+000  0.000000000000000E+000        
  0.000000000000000E+000  0.000000000000000E+000  0.000000000000000E+000        
  0.000000000000000E+000                                                        
   1157.00000000000       3.693000000000000E-003 -7.850000000000000E-004        
  0.000000000000000E+000  0.000000000000000E+000  0.000000000000000E+000        
  0.000000000000000E+000  0.000000000000000E+000  0.000000000000000E+000        
  0.000000000000000E+000                                                        
   326.600000000000       1.536000000000000E-002 -3.324000000000000E-003        
  0.000000000000000E+000  0.000000000000000E+000  0.000000000000000E+000        
  0.000000000000000E+000  0.000000000000000E+000  0.000000000000000E+000        
  0.000000000000000E+000                                                        
   106.100000000000       5.292900000000000E-002 -1.151200000000000E-002        
  0.000000000000000E+000  0.000000000000000E+000  0.000000000000000E+000        
  0.000000000000000E+000  0.000000000000000E+000  0.000000000000000E+000        
  0.000000000000000E+000                                                        
   38.1100000000000       0.147043000000000      -3.416000000000000E-002        
  0.000000000000000E+000  0.000000000000000E+000  0.000000000000000E+000        
  0.000000000000000E+000  0.000000000000000E+000  0.000000000000000E+000        
  0.000000000000000E+000                                                        
   14.7500000000000       0.305631000000000      -7.717300000000001E-002        
  0.000000000000000E+000  0.000000000000000E+000  0.000000000000000E+000        
  0.000000000000000E+000  0.000000000000000E+000  0.000000000000000E+000        
  0.000000000000000E+000                                                        
   6.03500000000000       0.399345000000000      -0.141493000000000             
  0.000000000000000E+000  0.000000000000000E+000  0.000000000000000E+000        
  0.000000000000000E+000  0.000000000000000E+000  0.000000000000000E+000        
  0.000000000000000E+000                                                        
   2.53000000000000       0.217051000000000      -0.118019000000000             
  0.000000000000000E+000  0.000000000000000E+000  0.000000000000000E+000        
  0.000000000000000E+000  0.000000000000000E+000  0.000000000000000E+000        
  0.000000000000000E+000                                                        
  0.735500000000000       1.589400000000000E-002  0.273806000000000             
   1.00000000000000       0.000000000000000E+000  0.000000000000000E+000        
  0.000000000000000E+000  0.000000000000000E+000  0.000000000000000E+000        
  0.000000000000000E+000                                                        
  0.290500000000000      -3.084000000000000E-003  0.586510000000000             
  0.000000000000000E+000   1.00000000000000       0.000000000000000E+000        
  0.000000000000000E+000  0.000000000000000E+000  0.000000000000000E+000        
  0.000000000000000E+000                                                        
  0.111100000000000       9.779999999999999E-004  0.285430000000000             
  0.000000000000000E+000  0.000000000000000E+000   1.00000000000000             
  0.000000000000000E+000  0.000000000000000E+000  0.000000000000000E+000        
  0.000000000000000E+000                                                        
   7.21600000000000       0.000000000000000E+000  0.000000000000000E+000        
  0.000000000000000E+000  0.000000000000000E+000  0.000000000000000E+000        
   1.00000000000000       0.000000000000000E+000  0.000000000000000E+000        
  0.000000000000000E+000                                                        
   19.5700000000000       0.000000000000000E+000  0.000000000000000E+000        
  0.000000000000000E+000  0.000000000000000E+000  0.000000000000000E+000        
  0.000000000000000E+000   1.00000000000000       0.000000000000000E+000        
  0.000000000000000E+000                                                        
   53.0730000000000       0.000000000000000E+000  0.000000000000000E+000        
  0.000000000000000E+000  0.000000000000000E+000  0.000000000000000E+000        
  0.000000000000000E+000  0.000000000000000E+000   1.00000000000000             
  0.000000000000000E+000                                                        
  4.145000000000000E-002  0.000000000000000E+000  0.000000000000000E+000        
  0.000000000000000E+000  0.000000000000000E+000  0.000000000000000E+000        
  0.000000000000000E+000  0.000000000000000E+000  0.000000000000000E+000        
   1.00000000000000                                                             
   10    8                                                                      
   34.5100000000000       5.378000000000000E-003  0.000000000000000E+000        
  0.000000000000000E+000  0.000000000000000E+000  0.000000000000000E+000        
  0.000000000000000E+000  0.000000000000000E+000  0.000000000000000E+000        
   7.91500000000000       3.613200000000000E-002  0.000000000000000E+000        
  0.000000000000000E+000  0.000000000000000E+000  0.000000000000000E+000        
  0.000000000000000E+000  0.000000000000000E+000  0.000000000000000E+000        
   2.36800000000000       0.142493000000000       0.000000000000000E+000        
  0.000000000000000E+000  0.000000000000000E+000  0.000000000000000E+000        
  0.000000000000000E+000  0.000000000000000E+000  0.000000000000000E+000        
  0.813200000000000       0.342150000000000        1.00000000000000             
  0.000000000000000E+000  0.000000000000000E+000  0.000000000000000E+000        
  0.000000000000000E+000  0.000000000000000E+000  0.000000000000000E+000        
  0.289000000000000       0.463864000000000       0.000000000000000E+000        
   1.00000000000000       0.000000000000000E+000  0.000000000000000E+000        
  0.000000000000000E+000  0.000000000000000E+000  0.000000000000000E+000        
  0.100700000000000       0.250028000000000       0.000000000000000E+000        
  0.000000000000000E+000   1.00000000000000       0.000000000000000E+000        
  0.000000000000000E+000  0.000000000000000E+000  0.000000000000000E+000        
   8.18200000000000       0.000000000000000E+000  0.000000000000000E+000        
  0.000000000000000E+000  0.000000000000000E+000   1.00000000000000             
  0.000000000000000E+000  0.000000000000000E+000  0.000000000000000E+000        
   24.1860000000000       0.000000000000000E+000  0.000000000000000E+000        
  0.000000000000000E+000  0.000000000000000E+000  0.000000000000000E+000        
   1.00000000000000       0.000000000000000E+000  0.000000000000000E+000        
   71.4940000000000       0.000000000000000E+000  0.000000000000000E+000        
  0.000000000000000E+000  0.000000000000000E+000  0.000000000000000E+000        
  0.000000000000000E+000   1.00000000000000       0.000000000000000E+000        
  3.218000000000000E-002  0.000000000000000E+000  0.000000000000000E+000        
  0.000000000000000E+000  0.000000000000000E+000  0.000000000000000E+000        
  0.000000000000000E+000  0.000000000000000E+000   1.00000000000000             
    6    6                                                                      
   1.84800000000000        1.00000000000000       0.000000000000000E+000        
  0.000000000000000E+000  0.000000000000000E+000  0.000000000000000E+000        
  0.000000000000000E+000                                                        
  0.649000000000000       0.000000000000000E+000   1.00000000000000             
  0.000000000000000E+000  0.000000000000000E+000  0.000000000000000E+000        
  0.000000000000000E+000                                                        
  0.228000000000000       0.000000000000000E+000  0.000000000000000E+000        
   1.00000000000000       0.000000000000000E+000  0.000000000000000E+000        
  0.000000000000000E+000                                                        
   8.65600000000000       0.000000000000000E+000  0.000000000000000E+000        
  0.000000000000000E+000   1.00000000000000       0.000000000000000E+000        
  0.000000000000000E+000                                                        
   33.2130000000000       0.000000000000000E+000  0.000000000000000E+000        
  0.000000000000000E+000  0.000000000000000E+000   1.00000000000000             
  0.000000000000000E+000                                                        
  7.660000000000000E-002  0.000000000000000E+000  0.000000000000000E+000        
  0.000000000000000E+000  0.000000000000000E+000  0.000000000000000E+000        
   1.00000000000000                                                             
    4    4                                                                      
   1.41900000000000        1.00000000000000       0.000000000000000E+000        
  0.000000000000000E+000  0.000000000000000E+000                                
  0.485000000000000       0.000000000000000E+000   1.00000000000000             
  0.000000000000000E+000  0.000000000000000E+000                                
   24.6940000000000       0.000000000000000E+000  0.000000000000000E+000        
   1.00000000000000       0.000000000000000E+000                                
  0.187000000000000       0.000000000000000E+000  0.000000000000000E+000        
  0.000000000000000E+000   1.00000000000000                                     
    2    2                                                                      
   1.01100000000000        1.00000000000000       0.000000000000000E+000        
  0.424000000000000       0.000000000000000E+000   1.00000000000000             
          8.00000000    1    5    1    1    1    1    1                         
O #2   0.000000000000000   0.000000000000000  -1.290263187198319                
   16    9                                                                      
   61420.0000000000       9.000000000000001E-005 -2.000000000000000E-005        
  0.000000000000000E+000  0.000000000000000E+000  0.000000000000000E+000        
  0.000000000000000E+000  0.000000000000000E+000  0.000000000000000E+000        
  0.000000000000000E+000                                                        
   9199.00000000000       6.980000000000001E-004 -1.590000000000000E-004        
  0.000000000000000E+000  0.000000000000000E+000  0.000000000000000E+000        
  0.000000000000000E+000  0.000000000000000E+000  0.000000000000000E+000        
  0.000000000000000E+000                                                        
   2091.00000000000       3.664000000000000E-003 -8.290000000000000E-004        
  0.000000000000000E+000  0.000000000000000E+000  0.000000000000000E+000        
  0.000000000000000E+000  0.000000000000000E+000  0.000000000000000E+000        
  0.000000000000000E+000                                                        
   590.900000000000       1.521800000000000E-002 -3.508000000000000E-003        
  0.000000000000000E+000  0.000000000000000E+000  0.000000000000000E+000        
  0.000000000000000E+000  0.000000000000000E+000  0.000000000000000E+000        
  0.000000000000000E+000                                                        
   192.300000000000       5.242300000000000E-002 -1.215600000000000E-002        
  0.000000000000000E+000  0.000000000000000E+000  0.000000000000000E+000        
  0.000000000000000E+000  0.000000000000000E+000  0.000000000000000E+000        
  0.000000000000000E+000                                                        
   69.3200000000000       0.145921000000000      -3.626100000000000E-002        
  0.000000000000000E+000  0.000000000000000E+000  0.000000000000000E+000        
  0.000000000000000E+000  0.000000000000000E+000  0.000000000000000E+000        
  0.000000000000000E+000                                                        
   26.9700000000000       0.305258000000000      -8.299200000000000E-002        
  0.000000000000000E+000  0.000000000000000E+000  0.000000000000000E+000        
  0.000000000000000E+000  0.000000000000000E+000  0.000000000000000E+000        
  0.000000000000000E+000                                                        
   11.1000000000000       0.398508000000000      -0.152090000000000             
  0.000000000000000E+000  0.000000000000000E+000  0.000000000000000E+000        
  0.000000000000000E+000  0.000000000000000E+000  0.000000000000000E+000        
  0.000000000000000E+000                                                        
   4.68200000000000       0.216980000000000      -0.115331000000000             
  0.000000000000000E+000  0.000000000000000E+000  0.000000000000000E+000        
  0.000000000000000E+000  0.000000000000000E+000  0.000000000000000E+000        
  0.000000000000000E+000                                                        
   1.42800000000000       1.759400000000000E-002  0.288979000000000             
   1.00000000000000       0.000000000000000E+000  0.000000000000000E+000        
  0.000000000000000E+000  0.000000000000000E+000  0.000000000000000E+000        
  0.000000000000000E+000                                                        
  0.554700000000000      -2.502000000000000E-003  0.586128000000000             
  0.000000000000000E+000   1.00000000000000       0.000000000000000E+000        
  0.000000000000000E+000  0.000000000000000E+000  0.000000000000000E+000        
  0.000000000000000E+000                                                        
  0.206700000000000       9.540000000000000E-004  0.277624000000000             
  0.000000000000000E+000  0.000000000000000E+000   1.00000000000000             
  0.000000000000000E+000  0.000000000000000E+000  0.000000000000000E+000        
  0.000000000000000E+000                                                        
   12.9740000000000       0.000000000000000E+000  0.000000000000000E+000        
  0.000000000000000E+000  0.000000000000000E+000  0.000000000000000E+000        
   1.00000000000000       0.000000000000000E+000  0.000000000000000E+000        
  0.000000000000000E+000                                                        
   34.9000000000000       0.000000000000000E+000  0.000000000000000E+000        
  0.000000000000000E+000  0.000000000000000E+000  0.000000000000000E+000        
  0.000000000000000E+000   1.00000000000000       0.000000000000000E+000        
  0.000000000000000E+000                                                        
   93.8810000000000       0.000000000000000E+000  0.000000000000000E+000        
  0.000000000000000E+000  0.000000000000000E+000  0.000000000000000E+000        
  0.000000000000000E+000  0.000000000000000E+000   1.00000000000000             
  0.000000000000000E+000                                                        
  6.959000000000000E-002  0.000000000000000E+000  0.000000000000000E+000        
  0.000000000000000E+000  0.000000000000000E+000  0.000000000000000E+000        
  0.000000000000000E+000  0.000000000000000E+000  0.000000000000000E+000        
   1.00000000000000                                                             
   10    8                                                                      
   63.4200000000000       6.044000000000000E-003  0.000000000000000E+000        
  0.000000000000000E+000  0.000000000000000E+000  0.000000000000000E+000        
  0.000000000000000E+000  0.000000000000000E+000  0.000000000000000E+000        
   14.6600000000000       4.179900000000000E-002  0.000000000000000E+000        
  0.000000000000000E+000  0.000000000000000E+000  0.000000000000000E+000        
  0.000000000000000E+000  0.000000000000000E+000  0.000000000000000E+000        
   4.45900000000000       0.161143000000000       0.000000000000000E+000        
  0.000000000000000E+000  0.000000000000000E+000  0.000000000000000E+000        
  0.000000000000000E+000  0.000000000000000E+000  0.000000000000000E+000        
   1.53100000000000       0.356731000000000        1.00000000000000             
  0.000000000000000E+000  0.000000000000000E+000  0.000000000000000E+000        
  0.000000000000000E+000  0.000000000000000E+000  0.000000000000000E+000        
  0.530200000000000       0.448309000000000       0.000000000000000E+000        
   1.00000000000000       0.000000000000000E+000  0.000000000000000E+000        
  0.000000000000000E+000  0.000000000000000E+000  0.000000000000000E+000        
  0.175000000000000       0.244940000000000       0.000000000000000E+000        
  0.000000000000000E+000   1.00000000000000       0.000000000000000E+000        
  0.000000000000000E+000  0.000000000000000E+000  0.000000000000000E+000        
   14.4750000000000       0.000000000000000E+000  0.000000000000000E+000        
  0.000000000000000E+000  0.000000000000000E+000   1.00000000000000             
  0.000000000000000E+000  0.000000000000000E+000  0.000000000000000E+000        
   42.7300000000000       0.000000000000000E+000  0.000000000000000E+000        
  0.000000000000000E+000  0.000000000000000E+000  0.000000000000000E+000        
   1.00000000000000       0.000000000000000E+000  0.000000000000000E+000        
   126.140000000000       0.000000000000000E+000  0.000000000000000E+000        
  0.000000000000000E+000  0.000000000000000E+000  0.000000000000000E+000        
  0.000000000000000E+000   1.00000000000000       0.000000000000000E+000        
  5.348000000000000E-002  0.000000000000000E+000  0.000000000000000E+000        
  0.000000000000000E+000  0.000000000000000E+000  0.000000000000000E+000        
  0.000000000000000E+000  0.000000000000000E+000   1.00000000000000             
    6    6                                                                      
   3.77500000000000        1.00000000000000       0.000000000000000E+000        
  0.000000000000000E+000  0.000000000000000E+000  0.000000000000000E+000        
  0.000000000000000E+000                                                        
   1.30000000000000       0.000000000000000E+000   1.00000000000000             
  0.000000000000000E+000  0.000000000000000E+000  0.000000000000000E+000        
  0.000000000000000E+000                                                        
  0.444000000000000       0.000000000000000E+000  0.000000000000000E+000        
   1.00000000000000       0.000000000000000E+000  0.000000000000000E+000        
  0.000000000000000E+000                                                        
   14.9270000000000       0.000000000000000E+000  0.000000000000000E+000        
  0.000000000000000E+000   1.00000000000000       0.000000000000000E+000        
  0.000000000000000E+000                                                        
   57.5440000000000       0.000000000000000E+000  0.000000000000000E+000        
  0.000000000000000E+000  0.000000000000000E+000   1.00000000000000             
  0.000000000000000E+000                                                        
  0.154000000000000       0.000000000000000E+000  0.000000000000000E+000        
  0.000000000000000E+000  0.000000000000000E+000  0.000000000000000E+000        
   1.00000000000000                                                             
    4    4                                                                      
   2.66600000000000        1.00000000000000       0.000000000000000E+000        
  0.000000000000000E+000  0.000000000000000E+000                                
  0.859000000000000       0.000000000000000E+000   1.00000000000000             
  0.000000000000000E+000  0.000000000000000E+000                                
   26.4830000000000       0.000000000000000E+000  0.000000000000000E+000        
   1.00000000000000       0.000000000000000E+000                                
  0.324000000000000       0.000000000000000E+000  0.000000000000000E+000        
  0.000000000000000E+000   1.00000000000000                                     
    2    2                                                                      
   1.84600000000000        1.00000000000000       0.000000000000000E+000        
  0.714000000000000       0.000000000000000E+000   1.00000000000000             
FINISH                                                                          
 
********************************************************************************
 ONE- AND TWO-ELECTRON INTEGRALS OVER SYMMETRY-ADAPTED AOS ARE CALCULATED.

  SPHERICAL HARMONICS ARE USED.
  
  INTEGRALS LESS THAN  0.10E-13 ARE NEGLECTED.

  NUCLEAR REPULSION ENERGY :   14.8811014788 A.U.
  @MOLECU-I, ONE ELECTRON INTEGRALS (CPU/WALL):        0.06/       0.06 SECONDS.
  @TWOEL-I,    4389398 INTEGRALS OF SYMMETRY TYPE  I I I I
  @TWOEL-I,   18944843 INTEGRALS OF SYMMETRY TYPE  I J I J
  @TWOEL-I,    9975508 INTEGRALS OF SYMMETRY TYPE  I I J J
  @TWOEL-I,   13988699 INTEGRALS OF SYMMETRY TYPE  I J K L
  @TWOEL-I, TOTAL NUMBER OF 2-E INTEGRALS   47298448.
  @MOLECU-I, TWO ELECTRON INTEGRALS (CPU/WALL):      212.07/      28.92 SECONDS.
 @CHECKOUT-I, Total execution time (CPU/WALL):      212.16/      29.01 seconds.

Running with 14 threads/proc

--executable xvmol finished with status     0 in       29.06 seconds (walltime).
 --invoking executable--
/nfs/workspaces/public/cfour_mpi/bin/xvmol2ja
 @GETMEM-I,  Allocated    3814 MB of main memory.
 @CHECKOUT-I, Total execution time (CPU/WALL):        0.19/       0.05 seconds.
--executable xvmol2ja finished with status     0 in        0.11 seconds (walltime).
 --invoking executable--
/nfs/workspaces/public/cfour_mpi/bin/xvprop
 @GETMEM-I,  Allocated    3814 MB of main memory.
   Property integrals will be calculated.
    --------------------------------------------------------------
                                   Property evaluated at 
    Property type                X             Y             Z
    --------------------------------------------------------------
    Dipole moment               ----          ----          ----  
    Quadrupole moment           ----          ----          ----  
    Octopole moment             ----          ----          ----  
    Relativisitic corr.         ----          ----          ----  
    Second moment            0.0000000     0.0000000     0.0000000
    Electron density         0.0000000     0.0000000     1.9353045
    Electron density         0.0000000     0.0000000    -1.2902632
    Field gradient           0.0000000     0.0000000     1.9353045
    Field gradient           0.0000000     0.0000000    -1.2902632
    Potential                0.0000000     0.0000000     1.9353045
    Potential                0.0000000     0.0000000    -1.2902632
    --------------------------------------------------------------
 @CHECKOUT-I, Total execution time (CPU/WALL):        1.31/       1.33 seconds.
--executable xvprop finished with status     0 in        1.36 seconds (walltime).
 --invoking executable--
/nfs/workspaces/public/cfour_mpi/bin/xvscf
  There are  218 functions in the AO basis.

  There are 4 irreducible representations.

       Irrep        # of functions
         1                 86
         2                 52
         3                 52
         4                 28


  Parameters for SCF calculation: 
        SCF reference function:  RHF  
  Maximum number of iterations:  150
     Full symmetry point group: CXv 
     Computational point group: C2v 
        Initial density matrix: MOREAD                 
     SCF convergence tolerance: 10**(-10)
  DIIS convergence acceleration:  ON
          Latest start for DIIS:   8
                     DIIS order:   6

  Memory information:    2523578 words required.
  Fock matrices are constructed from AO integral file.
 @GETMEM-I,  Allocated      19 MB of main memory.
  Initialization and symmetry analysis required      0.002 seconds.

  Adding electric field perturbation to one-electron Hamiltonian.
  Field direction     : Z
  Field strength      : -0.0002000 a.u.

  @INITGES-I, Occupancies from core Hamiltonian:

          Alpha population by irrep:   5    1    1    0
           Beta population by irrep:   5    1    1    0


 total no. of electrons in initial guess :  0.000000000000000E+000
  --------------------------------------------------------------------
  Iteration         Total Energy            Largest Density Difference
  --------------------------------------------------------------------
       0            14.881359423081268              0.0000000000D+00
   current occupation vector 
     5  1  1  0
     5  1  1  0
       1           -93.705805319453617              0.1756167973D+02
   current occupation vector 
     5  1  1  0
     5  1  1  0
       2           -97.740483693834705              0.1756167191D+02
   current occupation vector 
     5  1  1  0
     5  1  1  0
       3           -99.932494242053878              0.6931052410D+01
   current occupation vector 
     5  1  1  0
     5  1  1  0
       4           -94.519374231639034              0.6928961665D+01
   current occupation vector 
     5  1  1  0
     5  1  1  0
       5           -99.932406609386504              0.7051780482D+01
   current occupation vector 
     5  1  1  0
     5  1  1  0
       6           -94.406632719565266              0.7051889592D+01
   current occupation vector 
     5  1  1  0
     5  1  1  0
       7           -99.928736935102179              0.7057483744D+01
   current occupation vector 
     5  1  1  0
     5  1  1  0
       8           -94.403788667880235              0.7057489112D+01
   current occupation vector 
     5  1  1  0
     5  1  1  0
       9          -107.151736126593477              0.6043761302D+01
   current occupation vector 
     5  1  1  0
     5  1  1  0
      10          -110.566248525379535              0.1314793887D+01
   current occupation vector 
     5  1  1  0
     5  1  1  0
      11          -112.286646389379541              0.1018295013D+01
   current occupation vector 
     5  1  1  0
     5  1  1  0
      12          -112.417944473940182              0.5893462985D+00
   current occupation vector 
     5  1  1  0
     5  1  1  0
      13          -112.459878172960799              0.1391805547D+00
   current occupation vector 
     5  1  1  0
     5  1  1  0
      14          -112.471791707296461              0.1073803781D+00
   current occupation vector 
     5  1  1  0
     5  1  1  0
      15          -112.472815378961542              0.3932512064D-01
   current occupation vector 
     5  1  1  0
     5  1  1  0
      16          -112.473901758017618              0.6457986221D-01
   current occupation vector 
     5  1  1  0
     5  1  1  0
      17          -112.474503537405539              0.5764971986D-01
   current occupation vector 
     5  1  1  0
     5  1  1  0
      18          -112.474640501710695              0.3667226380D-01
   current occupation vector 
     5  1  1  0
     5  1  1  0
      19          -112.474641831391551              0.2616840290D-02
   current occupation vector 
     5  1  1  0
     5  1  1  0
      20          -112.474641866573265              0.6645851150D-03
   current occupation vector 
     5  1  1  0
     5  1  1  0
      21          -112.474641867506847              0.1277857094D-03
   current occupation vector 
     5  1  1  0
     5  1  1  0
      22          -112.474641867761520              0.5987285461D-04
   current occupation vector 
     5  1  1  0
     5  1  1  0
      23          -112.474641867762728              0.9484077683D-06
   current occupation vector 
     5  1  1  0
     5  1  1  0
      24          -112.474641867762926              0.4308157349D-06
   current occupation vector 
     5  1  1  0
     5  1  1  0
      25          -112.474641867762401              0.4951351906D-07
   current occupation vector 
     5  1  1  0
     5  1  1  0
      26          -112.474641867763765              0.4316592039D-07
   current occupation vector 
     5  1  1  0
     5  1  1  0
      27          -112.474641867763964              0.2210518035D-07
   current occupation vector 
     5  1  1  0
     5  1  1  0
      28          -112.474641867762486              0.9994525874D-08
   current occupation vector 
     5  1  1  0
     5  1  1  0
      29          -112.474641867763197              0.4158686728D-09
   current occupation vector 
     5  1  1  0
     5  1  1  0
      30          -112.474641867762472              0.4366258466D-09
   current occupation vector 
     5  1  1  0
     5  1  1  0
      31          -112.474641867763197              0.1218909418D-09
   current occupation vector 
     5  1  1  0
     5  1  1  0

  SCF has converged.

 Density matrix saved to file den.dat
 total electron number:   14.0000000000000     
     E(SCF)=      -112.474641867762998              0.1618882806D-10

  Eigenvector printing suppressed.

 @PUTMOS-I, Writing converged MOs to NEWMOS. 
 @PUTMOS-I, Symmetry   1 Full Blocks 21 Partial Blocksize   2
 @PUTMOS-I, Symmetry   2 Full Blocks 13 Partial Blocksize   0
 @PUTMOS-I, Symmetry   3 Full Blocks 13 Partial Blocksize   0
 @PUTMOS-I, Symmetry   4 Full Blocks  7 Partial Blocksize   0
 @PUTFOCK-I, Writing converged Fock matrix to NEWFOCK. 
 @PUTFOCK-I, Symmetry   1 Full Blocks 21 Partial Blocksize   2
 @PUTFOCK-I, Symmetry   2 Full Blocks 13 Partial Blocksize   0
 @PUTFOCK-I, Symmetry   3 Full Blocks 13 Partial Blocksize   0
 @PUTFOCK-I, Symmetry   4 Full Blocks  7 Partial Blocksize   0


 
  ORBITAL EIGENVALUES (ALPHA)  (1H = 27.2113834 eV)

       MO #        E(hartree)               E(eV)           FULLSYM    COMPSYM
       ----   --------------------   --------------------   -------   ---------
    1     1         -20.6328069793        -561.4472213315     SG+        A1 (1)
    2     2         -11.5356505839        -313.9010108064     SG+        A1 (1)
    3     3          -1.2429250265         -33.8217094341     SG+        A1 (1)
    4     4          -0.8123319394         -22.1046758508     SG+        A1 (1)
    5     5          -0.5050609898         -13.7434082346     SG+        A1 (1)
    6   139          -0.4822642558         -13.1230775655      PI        B2 (3)
    7    87          -0.4822642558         -13.1230775655      PI        B1 (2)
  +++++++++++++++++++++++++++++++++++++++++++++++++++++++++++++++++++++++++++++
    8   140          -0.0224601746          -0.6111724234      PI        B2 (3)
    9    88          -0.0224601746          -0.6111724234      PI        B1 (2)
   10     6           0.0562501717           1.5306449879     SG+        A1 (1)
   11     7           0.0693380285           1.8867836774     SG+        A1 (1)
   12    89           0.0802118869           2.1826764070      PI        B1 (2)
   13   141           0.0802118869           2.1826764070      PI        B2 (3)
   14     8           0.1553915796           4.2284198506     SG+        A1 (1)
   15     9           0.1708358379           4.6486794847     SG+        A1 (1)
   16    90           0.1832999589           4.9878454595      PI        B1 (2)
   17   142           0.1832999589           4.9878454595      PI        B2 (3)
   18   191           0.2195416917           5.9740331449      DE        A2 (4)
   19    10           0.2195416917           5.9740331449      DE        A1 (1)
   20    91           0.2798544745           7.6152274026      PI        B1 (2)
   21   143           0.2798544745           7.6152274026      PI        B2 (3)
   22    11           0.2903956143           7.9020663978     SG+        A1 (1)
   23    12           0.3048863815           8.2963802200     SG+        A1 (1)
   24   144           0.4084542943          11.1146064023      PI        B2 (3)
   25    92           0.4084542943          11.1146064023      PI        B1 (2)
   26    13           0.4093853267          11.1399410820     SG+        A1 (1)
   27    14           0.5155598775          14.0290974911     SG+        A1 (1)
   28    15           0.5508241908          14.9886882408      DE        A1 (1)
   29   192           0.5508241908          14.9886882408      DE        A2 (4)
   30    93           0.6240026757          16.9799760498      PI        B1 (2)
   31   145           0.6240026757          16.9799760498      PI        B2 (3)
   32    16           0.6984820148          19.0066619025     SG+        A1 (1)
   33   146           0.7257818888          19.7495292406      PH        B2 (3)
   34    94           0.7257818888          19.7495292406      PH        B1 (2)
   35    17           0.7318652746          19.9150665855      DE        A1 (1)
   36   193           0.7318652746          19.9150665855      DE        A2 (4)
   37    95           0.7686763823          20.9167477484      PI        B1 (2)
   38   147           0.7686763823          20.9167477484      PI        B2 (3)
   39    18           0.8084728107          21.9996636210     SG+        A1 (1)
   40    19           0.8491957807          23.1077919701      DE        A1 (1)
   41   194           0.8491957807          23.1077919701      DE        A2 (4)
   42   148           0.8670082999          23.5924952593      PI        B2 (3)
   43    96           0.8670082999          23.5924952593      PI        B1 (2)
   44    20           0.9029652369          24.5709332586     SG+        A1 (1)
   45    97           1.0529652547          28.6526412537      PI        B1 (2)
   46   149           1.0529652547          28.6526412537      PI        B2 (3)
   47    21           1.1464726338          31.1971063959     SG+        A1 (1)
   48    22           1.3303529913          36.2007453035     SG+        A1 (1)
   49    98           1.4188691115          38.6093913880      PH        B1 (2)
   50   150           1.4188691115          38.6093913880      PH        B2 (3)
   51    99           1.4577490999          39.6673696573      PI        B1 (2)
   52   151           1.4577490999          39.6673696573      PI        B2 (3)
   53    23           1.5776587876          42.9302781424     SG+        A1 (1)
   54    24           1.5877328218          43.2044065494      DE        A1 (1)
   55   195           1.5877328218          43.2044065494      DE        A2 (4)
   56   100           1.6414280718          44.6655285866      PI        B1 (2)
   57   152           1.6414280718          44.6655285866      PI        B2 (3)
   58    25           1.6605882824          45.1869044206      DE        A1 (1)
   59   196           1.6605882824          45.1869044206      DE        A2 (4)
   60    26           1.8833652443          51.2489737456     SG+        A1 (1)
   61    27           1.9216342946          52.2903275457     SG+        A1 (1)
   62   101           2.0281333665          55.1883146228      PI        B1 (2)
   63   153           2.0281333665          55.1883146228      PI        B2 (3)
   64   197           2.0573853355          55.9843011670      PI        A2 (4)
   65    28           2.0573853355          55.9843011670      PI        A1 (1)
   66    29           2.1146301847          57.5420127064      DE        A1 (1)
   67   198           2.1146301847          57.5420127064      DE        A2 (4)
   68   102           2.1717119635          59.0952868736      PH        B1 (2)
   69   154           2.1717119635          59.0952868736      PH        B2 (3)
   70   155           2.1972237242          59.7894971737      PH        B2 (3)
   71   103           2.1972237242          59.7894971737      PH        B1 (2)
   72   156           2.2027100122          59.9387866614      PI        B2 (3)
   73   104           2.2027100122          59.9387866614      PI        B1 (2)
   74    30           2.2179200910          60.3526739465     SG+        A1 (1)
   75    31           2.2685879041          61.7314152359      DE        A1 (1)
   76   199           2.2685879041          61.7314152359      DE        A2 (4)
   77    32           2.3591152498          64.1947895469     SG+        A1 (1)
   78   105           2.4717943681          67.2609442373      PI        B1 (2)
   79   157           2.4717943681          67.2609442373      PI        B2 (3)
   80   200           2.5632329408          69.7491142948      DE        A2 (4)
   81    33           2.5632329408          69.7491142948      DE        A1 (1)
   82   106           2.6317324207          71.6130799046      PI        B1 (2)
   83   158           2.6317324207          71.6130799046      PI        B2 (3)
   84    34           2.6577632913          72.3214159074     SG+        A1 (1)
   85    35           2.8036846462          76.2921378414     SG+        A1 (1)
   86   159           3.2742722913          89.0974786754      PI        B2 (3)
   87   107           3.2742722913          89.0974786754      PI        B1 (2)
   88   201           3.7198933385         101.2234438419      PI        A2 (4)
   89    36           3.7198933385         101.2234438419      PI        A1 (1)
   90    37           3.8129860641         103.7566256904     SG+        A1 (1)
   91   108           3.8668417644         105.2221137969      PH        B1 (2)
   92   160           3.8668417644         105.2221137969      PH        B2 (3)
   93    38           4.0611060387         110.5083134482     SG+        A1 (1)
   94    39           4.1388844181         112.6247707494      DE        A1 (1)
   95   202           4.1388844181         112.6247707494      DE        A2 (4)
   96   161           4.1428591359         112.7329283181      PI        B2 (3)
   97   109           4.1428591359         112.7329283181      PI        B1 (2)
   98   162           4.1502065785         112.9328623970      PH        B2 (3)
   99   110           4.1502065785         112.9328623970      PH        B1 (2)
  100    40           4.3103263855         117.2899438552      DE        A1 (1)
  101   203           4.3103263855         117.2899438552      DE        A2 (4)
  102    41           4.3213981844         117.5912228206     SG+        A1 (1)
  103   111           4.4736387282         121.7338986263      PI        B1 (2)
  104   163           4.4736387282         121.7338986263      PI        B2 (3)
  105   204           4.5797541558         124.6214462104      DE        A2 (4)
  106    42           4.5797541558         124.6214462104      DE        A1 (1)
  107    43           4.8780550061         132.7386250166     SG+        A1 (1)
  108   112           5.0311005828         136.9032068814      PI        B1 (2)
  109   164           5.0311005828         136.9032068814      PI        B2 (3)
  110    44           5.0710156615         137.9893513930     SG+        A1 (1)
  111   165           5.3556509621         145.7346716872      PI        B2 (3)
  112   113           5.3556509621         145.7346716873      PI        B1 (2)
  113    45           5.8091182875         158.0741449363      PI        A1 (1)
  114   205           5.8091182875         158.0741449363      PI        A2 (4)
  115   114           5.8799420814         160.0013583464      PH        B1 (2)
  116   166           5.8799420814         160.0013583464      PH        B2 (3)
  117    46           5.9514239011         161.9464775485     SG+        A1 (1)
  118    47           6.0383395525         164.3115726635      DE        A1 (1)
  119   206           6.0383395525         164.3115726635      DE        A2 (4)
  120   115           6.1001116103         165.9924758097      PI        B1 (2)
  121   167           6.1001116103         165.9924758097      PI        B2 (3)
  122    48           6.1395645663         167.0660453219     SG+        A1 (1)
  123    49           6.2461677318         169.9668649314      DE        A1 (1)
  124   207           6.2461677318         169.9668649314      DE        A2 (4)
  125   116           6.3333378985         172.3388857578      PH        B1 (2)
  126   168           6.3333378985         172.3388857578      PH        B2 (3)
  127    50           6.4628767974         175.8638184002      DE        A1 (1)
  128   208           6.4628767974         175.8638184002      DE        A2 (4)
  129   169           6.6953315889         182.1892348551      PI        B2 (3)
  130   117           6.6953315889         182.1892348551      PI        B1 (2)
  131   170           7.0025791436         190.5498658659      PI        B2 (3)
  132   118           7.0025791436         190.5498658659      PI        B1 (2)
  133    51           7.0528250247         191.9171257992     SG+        A1 (1)
  134    52           7.4664131670         203.1714313112     SG+        A1 (1)
  135    53           9.3287344751         253.8477704398     SG+        A1 (1)
  136   171           9.6057699996         261.3862903108      PI        B2 (3)
  137   119           9.6057699996         261.3862903110      PI        B1 (2)
  138    54          10.6581931706         290.0241807165     SG+        A1 (1)
  139   209          10.6780876126         290.5655360047      PI        A2 (4)
  140    55          10.6780876126         290.5655360047      PI        A1 (1)
  141   120          10.7259899628         291.8690252235      PH        B1 (2)
  142   172          10.7259899628         291.8690252235      PH        B2 (3)
  143    56          10.9239764223         297.2565106807      DE        A1 (1)
  144   210          10.9239764223         297.2565106807      DE        A2 (4)
  145   173          10.9955893757         299.2051982117      PI        B2 (3)
  146   121          10.9955893757         299.2051982117      PI        B1 (2)
  147    57          11.1129194358         302.3979114615     SG+        A1 (1)
  148   174          11.9129453114         324.1677222915      PH        B2 (3)
  149   122          11.9129453114         324.1677222915      PH        B1 (2)
  150   211          11.9747016466         325.8481976072      DE        A2 (4)
  151    58          11.9747016467         325.8481976078      DE        A1 (1)
  152   175          12.1976905843         331.9160350833      PI        B2 (3)
  153   123          12.1976905843         331.9160350833      PI        B1 (2)
  154    59          12.4791871083         339.5759449254     SG+        A1 (1)
  155   212          12.7237146370         346.2298772602      DE        A2 (4)
  156    60          12.7237146370         346.2298772602      DE        A1 (1)
  157   176          13.0959801380         356.3597365345      PI        B2 (3)
  158   124          13.0959801380         356.3597365345      PI        B1 (2)
  159    61          13.3284954224         362.6867990848     SG+        A1 (1)
  160    62          17.1975866819         467.9701247560     SG+        A1 (1)
  161   177          18.6629251737         507.8440122669      PI        B2 (3)
  162   125          18.6629251737         507.8440122669      PI        B1 (2)
  163    63          19.3958177991         527.7870344890     SG+        A1 (1)
  164    64          26.2326356492         713.8263062437      DE        A1 (1)
  165   213          26.2326356492         713.8263062437      DE        A2 (4)
  166   178          26.4504160954         719.7524134620      PI        B2 (3)
  167   126          26.4504160954         719.7524134620      PI        B1 (2)
  168    65          26.8671122464         731.0912921864     SG+        A1 (1)
  169   179          33.3389372769         907.1986043906      PI        B2 (3)
  170   127          33.3389372769         907.1986043912      PI        B1 (2)
  171    66          34.1678682732         929.7549635432     SG+        A1 (1)
  172    67          35.4976722523         965.9407694656     SG+        A1 (1)
  173   214          47.0813982216        1281.1499780149      DE        A2 (4)
  174    68          47.0813982216        1281.1499780150      DE        A1 (1)
  175   180          47.2611246361        1286.0405823875      PI        B2 (3)
  176   128          47.2611246361        1286.0405823875      PI        B1 (2)
  177    69          47.4012346248        1289.8531690099     SG+        A1 (1)
  178    70          63.6439235043        1731.8392035560     SG+        A1 (1)
  179   181          66.2581846305        1802.9768653683      PI        B2 (3)
  180   129          66.2581846305        1802.9768653685      PI        B1 (2)
  181    71          66.8066962302        1817.9026248066     SG+        A1 (1)
  182   182          98.4915521151        2680.0913862649      PH        B2 (3)
  183   130          98.4915521151        2680.0913862649      PH        B1 (2)
  184   215          98.5066282630        2680.5016291052      DE        A2 (4)
  185    72          98.5066282630        2680.5016291052      DE        A1 (1)
  186   183          98.5204591072        2680.8779855110      PI        B2 (3)
  187   131          98.5204591072        2680.8779855110      PI        B1 (2)
  188    73          98.5274276915        2681.0676103305     SG+        A1 (1)
  189    74         103.3212906876        2811.5152542833      DE        A1 (1)
  190   216         103.3212906877        2811.5152542856      DE        A2 (4)
  191   132         103.3311099789        2811.7824507832      PH        B1 (2)
  192   184         103.3311099789        2811.7824507832      PH        B2 (3)
  193   133         103.3315347751        2811.7940100745      PI        B1 (2)
  194   185         103.3315347751        2811.7940100745      PI        B2 (3)
  195    75         103.3432751736        2812.1134825598     SG+        A1 (1)
  196    76         114.9408789252        3127.7003247673      DE        A1 (1)
  197   217         114.9408789252        3127.7003247673      DE        A2 (4)
  198   186         115.0475185440        3130.6021363188      PI        B2 (3)
  199   134         115.0475185440        3130.6021363188      PI        B1 (2)
  200    77         115.2226317603        3135.3672091858     SG+        A1 (1)
  201   187         116.6597410800        3174.4729418713      PI        B2 (3)
  202   135         116.6597410800        3174.4729418719      PI        B1 (2)
  203    78         117.3559837536        3193.4186682040     SG+        A1 (1)
  204    79         121.7662485409        3313.4280742270     SG+        A1 (1)
  205   218         198.5660735820        5403.2575584730      DE        A2 (4)
  206    80         198.5660735820        5403.2575584731      DE        A1 (1)
  207   136         198.6638843973        5405.9191260681      PI        B1 (2)
  208   188         198.6638843973        5405.9191260682      PI        B2 (3)
  209    81         198.7378474845        5407.9317639921     SG+        A1 (1)
  210    82         216.1767901870        5882.4695199587     SG+        A1 (1)
  211   189         224.7474339437        6115.6885932073      PI        B2 (3)
  212   137         224.7474339437        6115.6885932074      PI        B1 (2)
  213    83         225.1807447893        6127.4795807591     SG+        A1 (1)
  214   190         395.2112104116       10754.2437704883      PI        B2 (3)
  215   138         395.2112104116       10754.2437704888      PI        B1 (2)
  216    84         395.7420005146       10768.6873034859     SG+        A1 (1)
  217    85         508.5217411618       13837.5800659892     SG+        A1 (1)
  218    86         894.9875857124       24353.8503330593     SG+        A1 (1)


  VSCF finished.

 @CHECKOUT-I, Total execution time (CPU/WALL):       57.01/      10.80 seconds.
--executable xvscf finished with status     0 in       10.84 seconds (walltime).
 --invoking executable--
/nfs/workspaces/public/cfour_mpi/bin/xvtran
 @GETMEM-I,  Allocated    3814 MB of main memory.
  Full RHF integral transformation
  Transformation of IIII integrals :
  1 pass through the AO integral file was required.
     4389398 AO integrals were read.
     8556923 MO integrals were written to HF2.
  Transformation of IIJJ integrals :
  1 pass through the AO integral file was required.
     9975508 AO integrals were read.
    14348016 MO integrals were written to HF2.
  Transformation of IJIJ integrals :
  1 pass through the AO integral file was required.
    18944843 AO integrals were read.
    26689764 MO integrals were written to HF2.
  Transformation of IJKL integrals :
  1 pass through the AO integral file was required.
    13988699 AO integrals were read.
    18071822 MO integrals were written to HF2.
  Summary of active molecular orbitals: 
------------------------------------------------------------------------
 
  Index      Eigenvalue    Symmetry    Index      Eigenvalue    Symmetry
------------------------------------------------------------------------
     1       -20.6328070        1       110         4.1428591        2
     2       -11.5356506        1       111         4.1502066        2
     3        -1.2429250        1       112         4.4736387        2
     4        -0.8123319        1       113         5.0311006        2
     5        -0.5050610        1       114         5.3556510        2
     6        -0.4822643        2       115         5.8799421        2
     7        -0.4822643        3       116         6.1001116        2
     8         0.0562502        1       117         6.3333379        2
     9         0.0693380        1       118         6.6953316        2
    10         0.1553916        1       119         7.0025791        2
    11         0.1708358        1       120         9.6057700        2
    12         0.2195417        1       121        10.7259900        2
    13         0.2903956        1       122        10.9955894        2
    14         0.3048864        1       123        11.9129453        2
    15         0.4093853        1       124        12.1976906        2
    16         0.5155599        1       125        13.0959801        2
    17         0.5508242        1       126        18.6629252        2
    18         0.6984820        1       127        26.4504161        2
    19         0.7318653        1       128        33.3389373        2
    20         0.8084728        1       129        47.2611246        2
    21         0.8491958        1       130        66.2581846        2
    22         0.9029652        1       131        98.4915521        2
    23         1.1464726        1       132        98.5204591        2
    24         1.3303530        1       133       103.3311100        2
    25         1.5776588        1       134       103.3315348        2
    26         1.5877328        1       135       115.0475185        2
    27         1.6605883        1       136       116.6597411        2
    28         1.8833652        1       137       198.6638844        2
    29         1.9216343        1       138       224.7474339        2
    30         2.0573853        1       139       395.2112104        2
    31         2.1146302        1       140        -0.0224602        3
    32         2.2179201        1       141         0.0802119        3
    33         2.2685879        1       142         0.1833000        3
    34         2.3591152        1       143         0.2798545        3
    35         2.5632329        1       144         0.4084543        3
    36         2.6577633        1       145         0.6240027        3
    37         2.8036846        1       146         0.7257819        3
    38         3.7198933        1       147         0.7686764        3
    39         3.8129861        1       148         0.8670083        3
    40         4.0611060        1       149         1.0529653        3
    41         4.1388844        1       150         1.4188691        3
    42         4.3103264        1       151         1.4577491        3
    43         4.3213982        1       152         1.6414281        3
    44         4.5797542        1       153         2.0281334        3
    45         4.8780550        1       154         2.1717120        3
    46         5.0710157        1       155         2.1972237        3
    47         5.8091183        1       156         2.2027100        3
    48         5.9514239        1       157         2.4717944        3
    49         6.0383396        1       158         2.6317324        3
    50         6.1395646        1       159         3.2742723        3
    51         6.2461677        1       160         3.8668418        3
    52         6.4628768        1       161         4.1428591        3
    53         7.0528250        1       162         4.1502066        3
    54         7.4664132        1       163         4.4736387        3
    55         9.3287345        1       164         5.0311006        3
    56        10.6581932        1       165         5.3556510        3
    57        10.6780876        1       166         5.8799421        3
    58        10.9239764        1       167         6.1001116        3
    59        11.1129194        1       168         6.3333379        3
    60        11.9747016        1       169         6.6953316        3
    61        12.4791871        1       170         7.0025791        3
    62        12.7237146        1       171         9.6057700        3
    63        13.3284954        1       172        10.7259900        3
    64        17.1975867        1       173        10.9955894        3
    65        19.3958178        1       174        11.9129453        3
    66        26.2326356        1       175        12.1976906        3
    67        26.8671122        1       176        13.0959801        3
    68        34.1678683        1       177        18.6629252        3
    69        35.4976723        1       178        26.4504161        3
    70        47.0813982        1       179        33.3389373        3
    71        47.4012346        1       180        47.2611246        3
    72        63.6439235        1       181        66.2581846        3
    73        66.8066962        1       182        98.4915521        3
    74        98.5066283        1       183        98.5204591        3
    75        98.5274277        1       184       103.3311100        3
    76       103.3212907        1       185       103.3315348        3
    77       103.3432752        1       186       115.0475185        3
    78       114.9408789        1       187       116.6597411        3
    79       115.2226318        1       188       198.6638844        3
    80       117.3559838        1       189       224.7474339        3
    81       121.7662485        1       190       395.2112104        3
    82       198.5660736        1       191         0.2195417        4
    83       198.7378475        1       192         0.5508242        4
    84       216.1767902        1       193         0.7318653        4
    85       225.1807448        1       194         0.8491958        4
    86       395.7420005        1       195         1.5877328        4
    87       508.5217412        1       196         1.6605883        4
    88       894.9875857        1       197         2.0573853        4
    89        -0.0224602        2       198         2.1146302        4
    90         0.0802119        2       199         2.2685879        4
    91         0.1833000        2       200         2.5632329        4
    92         0.2798545        2       201         3.7198933        4
    93         0.4084543        2       202         4.1388844        4
    94         0.6240027        2       203         4.3103264        4
    95         0.7257819        2       204         4.5797542        4
    96         0.7686764        2       205         5.8091183        4
    97         0.8670083        2       206         6.0383396        4
    98         1.0529653        2       207         6.2461677        4
    99         1.4188691        2       208         6.4628768        4
   100         1.4577491        2       209        10.6780876        4
   101         1.6414281        2       210        10.9239764        4
   102         2.0281334        2       211        11.9747016        4
   103         2.1717120        2       212        12.7237146        4
   104         2.1972237        2       213        26.2326356        4
   105         2.2027100        2       214        47.0813982        4
   106         2.4717944        2       215        98.5066283        4
   107         2.6317324        2       216       103.3212907        4
   108         3.2742723        2       217       114.9408789        4
   109         3.8668418        2       218       198.5660736        4
------------------------------------------------------------------------
  -20.6328069792832       -11.5356505838815       -1.24292502652148     
 -0.812331939389021      -0.505060989829991      -0.482264255829812     
 -0.482264255829833       5.625017167978871E-002  6.933802848995115E-002
  0.155391579634097       0.170835837940355       0.219541691691624     
  0.290395614277274       0.304886381482373       0.409385326657905     
  0.515559877454320       0.550824190761606       0.698482014792752     
  0.731865274645385       0.808472810719367       0.849195780693021     
  0.902965236915826        1.14647263379882        1.33035299129540     
   1.57765878755017        1.58773282175112        1.66058828235050     
   1.88336524432749        1.92163429462789        2.05738533554356     
   2.11463018474657        2.21792009099208        2.26858790413197     
   2.35911524979140        2.56323294077085        2.65776329134925     
   2.80368464623617        3.71989333853361        3.81298606414941     
   4.06110603874140        4.13888441810615        4.31032638550928     
[...]
 Convergence information after    19 iterations: 
 Largest element of residual vector :  0.23437155E-06.
 Largest element of DIIS residual   : -0.11026735E-06.
 Convergence information after    20 iterations: 
 Largest element of residual vector : -0.10076653E-06.
 Largest element of DIIS residual   : -0.55546002E-07.
 Perturbed amplitude equations converged in    20 iterations.
  Dominant contributions to perturbed wavefunction:
    7    0   46    0   0.2275738578 AA  
    7    7  140   22  -0.2222785888 ABAB
    7    7   22  140  -0.2222785888 ABAB
    7    0   22    0   0.2200109677 AA  
    7    0   36    0   0.2175303135 AA  
    7    0   28    0   0.1938936156 AA  
    7    7  140   32  -0.1839495561 ABAB
    7    7   32  140  -0.1839495561 ABAB
    7    7  140   45  -0.1812862266 ABAB
    7    7   45  140  -0.1812862266 ABAB
    7    0   32    0   0.1714169277 AA  
    7    0   25    0  -0.1687899201 AA  
    7    7  140   46  -0.1677159494 ABAB
    7    7   46  140  -0.1677159494 ABAB
    7    0   39    0   0.1653388392 AA  
    7    7  140   28  -0.1590064746 ABAB
    7    7   28  140  -0.1590064746 ABAB
    7    0   56    0   0.1582690391 AA  
    7    0   54    0  -0.1575626321 AA  
    7    0   16    0  -0.1572833440 AA  
  norm of converged amps    1.57902717369379     
 Starting iterative solution of the perturbed Lambda equations.
 The DIIS procedure is used to accelerate convergence.
 Convergence criterion is 10**(-7).
 Maximum number of iterations is 100.
 Convergence information after     1 iterations: 
 Largest element of residual vector :  0.77478368E-01.
 Largest element of DIIS residual   :  0.77478368E-01.
 Convergence information after     2 iterations: 
 Largest element of residual vector : -0.17425588E-01.
 Largest element of DIIS residual   :  0.14502307E-01.
 Convergence information after     3 iterations: 
 Largest element of residual vector :  0.62024836E-02.
 Largest element of DIIS residual   :  0.59258331E-02.
 Convergence information after     4 iterations: 
 Largest element of residual vector :  0.32652325E-02.
 Largest element of DIIS residual   :  0.30823251E-02.
 Convergence information after     5 iterations: 
 Largest element of residual vector :  0.31760501E-02.
 Largest element of DIIS residual   :  0.27704517E-02.
 Convergence information after     6 iterations: 
 Largest element of residual vector :  0.18702821E-02.
 Largest element of DIIS residual   :  0.88796199E-03.
 Convergence information after     7 iterations: 
 Largest element of residual vector :  0.96555114E-03.
 Largest element of DIIS residual   :  0.47724718E-03.
 Convergence information after     8 iterations: 
 Largest element of residual vector :  0.36692917E-03.
 Largest element of DIIS residual   : -0.19692070E-03.
 Convergence information after     9 iterations: 
 Largest element of residual vector :  0.15953436E-03.
 Largest element of DIIS residual   : -0.10152610E-03.
 Convergence information after    10 iterations: 
 Largest element of residual vector :  0.10157124E-03.
 Largest element of DIIS residual   : -0.69429600E-04.
 Convergence information after    11 iterations: 
 Largest element of residual vector : -0.38037294E-04.
 Largest element of DIIS residual   : -0.13573252E-04.
 Convergence information after    12 iterations: 
 Largest element of residual vector :  0.18505400E-04.
 Largest element of DIIS residual   :  0.97931829E-05.
 Convergence information after    13 iterations: 
 Largest element of residual vector :  0.49604102E-05.
 Largest element of DIIS residual   :  0.41794640E-05.
 Convergence information after    14 iterations: 
 Largest element of residual vector :  0.51775468E-05.
 Largest element of DIIS residual   :  0.26959334E-05.
 Convergence information after    15 iterations: 
 Largest element of residual vector :  0.28604557E-05.
 Largest element of DIIS residual   :  0.13866815E-05.
 Convergence information after    16 iterations: 
 Largest element of residual vector :  0.11706719E-05.
 Largest element of DIIS residual   :  0.32802105E-06.
 Convergence information after    17 iterations: 
 Largest element of residual vector :  0.60119536E-06.
 Largest element of DIIS residual   :  0.27873541E-06.
 Convergence information after    18 iterations: 
 Largest element of residual vector :  0.11901187E-06.
 Largest element of DIIS residual   : -0.10458630E-06.
 Convergence information after    19 iterations: 
 Largest element of residual vector :  0.10809312E-06.
 Largest element of DIIS residual   : -0.45984320E-07.
 Perturbed Lambda equations converged in    19 iterations.
  Dominant contributions to perturbed wavefunction:
    7    7  140   22  -0.1631001498 ABAB
    7    7   22  140  -0.1631001498 ABAB
    7    7  140   45  -0.1360126514 ABAB
    7    7   45  140  -0.1360126514 ABAB
    7    7  140   32  -0.1358208362 ABAB
    7    7   32  140  -0.1358208362 ABAB
    7    7  140   46  -0.1173315071 ABAB
    7    7   46  140  -0.1173315071 ABAB
    7    7  140   39  -0.1137446965 ABAB
    7    7   39  140  -0.1137446965 ABAB
    7    7  140   28  -0.1135711881 ABAB
    7    7   28  140  -0.1135711881 ABAB
    7    7  140   56  -0.1092129962 ABAB
    7    7   56  140  -0.1092129962 ABAB
    7    7  140   36  -0.1076861482 ABAB
    7    7   36  140  -0.1076861482 ABAB
    7    6   22   89  -0.1015340419 ABAB
    6    7   89   22  -0.1015340419 ABAB
    7    7  140   16   0.1010782479 ABAB
    7    7   16  140   0.1010782479 ABAB
        The DBOC first-order density matrix is being calculated 
             (Symmetry block 3, perturbation   2)
 term   2.58601488877630     
 final tnorm  0.718101594324623     
  norm contr. I: |<0|L dT/dx|0>|^2   0.000000000000000E+000
  norm contr. II: <0|[nabla(1+L)e-T][nabla e^T]|0>   2.58601488877630     
  total norm contribution   2.58601488877630     
 oo  1.050147558940688E-002
 vv  -17.1765887210676     
 vo  1.863330811874956E-002
  Correlated perturbed 1-el contribution to DBOC  -17.1474539373594       cm**-1
  SUM_I |dc_I/dx|^2 contribution to DBOC   8.65125100579031       cm**-1
 
 
  The total diagonal Born-Oppenheimer correction (DBOC) is:      0.0038687362 a.u.
  The total diagonal Born-Oppenheimer correction (DBOC) is:        849.089445 cm-1
 
 Total CC energy including DBOC  -113.027741393456     
 First-order density matrix is being calculated  (Symmetry block 3, perturbation   2)
 Calculation of the contributions of <pq||rs> to dI(i,j)/dx required   2.8 seconds.
 Calculation of the contributions of <pq||rs> to dI(a,b)/dx required  15.8 seconds.
 Calculation of the contributions of <pq||rs> to dI(i,a)/dx required   9.5 seconds.
 First-order Z-vector equations are solved for 1 perturbation.
 Convergence reached after  20 iterations.
        U*G(pq,rs) contribution is being calculated
             (Symmetry block 3, perturbation   2)

 CCSD contribution to force constants 

        0.0000000000        0.0000000000        0.0000000000
        0.0000000000        0.0000000000        0.0000000000
        0.0000000000        0.0000000000        0.0000000000
        0.0000000000        0.0000000000        0.0000000000
        0.0000000000        0.0000000000        0.0000000000
        0.0000000000        0.0000000000        0.0000000000
        0.0000000000        0.0000000000        0.0000000000
        0.0000000000        0.0000000000        0.0000000000
        0.0000000000        0.0000000000        0.0000000000
        0.0000000000        0.0000000000        0.0000000000
        0.0000000000        0.0000000000        0.0000000000
        0.0000000000       -8.4904481097        8.4904481097

 CCSD contribution to dipole derivatives 

        0.0000000000        0.0000000000        0.0000000000
        0.0000000000        0.0000000000        0.0000000000
        0.0000000000        0.0000000000        0.0000000000
        0.0000000000        0.0000000000       -0.0566221309
        0.0000000000        0.0000000000        0.0000000000
        0.0000000000        0.0000000000        0.0000000000
 @CHECKOUT-I, Total execution time (CPU/WALL):     1240.70/     483.00 seconds.
--executable xsdcc finished with status     0 in      483.20 seconds (walltime).
 --invoking executable--
/nfs/workspaces/public/cfour_mpi/bin/xanti
 @GETMEM-I,  Allocated    3814 MB of main memory.
 CCSD MO derivative gammas will be sorted to Mulliken order.
 @CHECKOUT-I, Total execution time (CPU/WALL):       11.48/      24.68 seconds.
--executable xanti finished with status     0 in       24.82 seconds (walltime).
 --invoking executable--
/nfs/workspaces/public/cfour_mpi/bin/xbcktrn
 @GETMEM-I,  Allocated    3814 MB of main memory.
 CCSD MO derivative gammas will be transformed to the AO basis.
 @CHECKOUT-I, Total execution time (CPU/WALL):       20.27/       9.56 seconds.
--executable xbcktrn finished with status     0 in        9.63 seconds (walltime).
 --invoking executable--
/nfs/workspaces/public/cfour_mpi/bin/xvdint
 @GETMEM-I,  Allocated    3814 MB of main memory.
 One- and two-electron integral derivatives are calculated
 for RHF-CC/MBPT hessians and dipole derivatives.
 Spherical gaussians are used.
  magnet F F
                    8722  records have been written to the Sort file.
  Total length of Sort file :             178609116  words.
 Evaluation of 2el integral derivatives

                      Two-electron integral gradient
                      ------------------------------

                         C #1 z     0.0000000000
                         O #2 z     0.0000000000


 C #1       0.0000000000            0.0774453726            0.0000000000
 O #2       0.0000000000           -0.0774453726            0.0000000000


 Evaluation of 2e integral derivatives required  372.53 seconds.
  contribution to Hessian
        0.0000000000        0.0000000000        0.0000000000
        0.0000000000        0.0774453726       -0.0774453726
 @CHECKOUT-I, Total execution time (CPU/WALL):      372.51/      86.98 seconds.
--executable xvdint finished with status     0 in       87.18 seconds (walltime).
 --invoking executable--
/nfs/workspaces/public/cfour_mpi/bin/xanti
 @GETMEM-I,  Allocated    3814 MB of main memory.
 CCSD MO gammas will be sorted to Mulliken order.
 @CHECKOUT-I, Total execution time (CPU/WALL):       16.99/      45.50 seconds.
--executable xanti finished with status     0 in       45.65 seconds (walltime).
 --invoking executable--
/nfs/workspaces/public/cfour_mpi/bin/xbcktrn
 @GETMEM-I,  Allocated    3814 MB of main memory.
 CCSD MO gammas will be transformed to the AO basis.
 @CHECKOUT-I, Total execution time (CPU/WALL):       64.69/      24.78 seconds.
--executable xbcktrn finished with status     0 in       24.85 seconds (walltime).
 --invoking executable--
/nfs/workspaces/public/cfour_mpi/bin/xvdint
 @GETMEM-I,  Allocated    3814 MB of main memory.
 One- and two-electron integral derivatives are calculated
 for RHF-CC/MBPT hessians and dipole derivatives.
 Spherical gaussians are used.
  magnet F F

                     Kinetic energy integral gradient
                     --------------------------------

                         C #1 z    -0.4214262755
                         O #2 z     0.4214262755


 C #1       0.0000000000            0.0000000000           -0.4214262755
 O #2       0.0000000000            0.0000000000            0.4214262755



                   Nuclear attraction integral gradient
                   ------------------------------------

                         C #1 z    12.1892617456
                         O #2 z   -12.1892617456


 C #1       0.0000000000            0.0000000000           12.1892617456
 O #2       0.0000000000            0.0000000000          -12.1892617456



                      Reorthonormalization gradient
                      -----------------------------

                         C #1 z     0.0000000000
                         O #2 z     0.0000000000


 C #1       0.0000000000            0.0000000000            0.0000000000
 O #2       0.0000000000            0.0000000000            0.0000000000



                     Kinetic energy integral Hessian
                     -------------------------------


           Symmetry 1

           C #1 z      O #2 z

 C #1 z    0.446616
 O #2 z   -0.446616    0.446616


           Symmetry 2

           C #1 x      O #2 x

 C #1 x   -0.289130
 O #2 x    0.289130   -0.289130


           Symmetry 3

           C #1 y      O #2 y

 C #1 y   -0.289130
 O #2 y    0.289130   -0.289130




           C #1 x      C #1 y      C #1 z      O #2 x      O #2 y      O #2 z

 C #1 x   -0.289130
 C #1 y    0.000000   -0.289130
 C #1 z    0.000000    0.000000    0.446616

 O #2 x    0.289130    0.000000    0.000000   -0.289130
 O #2 y    0.000000    0.289130    0.000000    0.000000   -0.289130
 O #2 z    0.000000    0.000000   -0.446616    0.000000    0.000000    0.446616




                   Nuclear attraction integral Hessian
                   -----------------------------------


           Symmetry 1

           C #1 z      O #2 z

 C #1 z   -7.253473
 O #2 z    7.253473   -7.253473


           Symmetry 2

           C #1 x      O #2 x

 C #1 x    5.905178
 O #2 x   -5.905178    5.905178


           Symmetry 3

           C #1 y      O #2 y

 C #1 y    5.905178
 O #2 y   -5.905178    5.905178




           C #1 x      C #1 y      C #1 z      O #2 x      O #2 y      O #2 z

 C #1 x    5.905178
 C #1 y    0.000000    5.905178
 C #1 z    0.000000    0.000000   -7.253473

 O #2 x   -5.905178    0.000000    0.000000    5.905178
 O #2 y    0.000000   -5.905178    0.000000    0.000000    5.905178
 O #2 z    0.000000    0.000000    7.253473    0.000000    0.000000   -7.253473




                Highest order reorthonormalization Hessian
                ------------------------------------------


           Symmetry 1

           C #1 z      O #2 z

 C #1 z    0.000000
 O #2 z    0.000000    0.000000


           Symmetry 2

           C #1 x      O #2 x

 C #1 x    0.000000
 O #2 x    0.000000    0.000000


           Symmetry 3

           C #1 y      O #2 y

 C #1 y    0.000000
 O #2 y    0.000000    0.000000




           C #1 x      C #1 y      C #1 z      O #2 x      O #2 y      O #2 z




                Electronic contributions to dipole moment
                -----------------------------------------

                               au             Debye

                    z     -0.73166766     -1.85971402

  Conversion factor used: 1 a.u. =   2.54174691 Debye 



   Electronic contributions to static part of dipole moment derivatives
   --------------------------------------------------------------------


                     Total dipole moment derivatives
                     -------------------------------


           Symmetry 1
                              Ez

               C #1 z    -5.63793486
               O #2 z    -8.36206514

           Symmetry 2
                              Ex

               C #1 x    -5.68742146
               O #2 x    -8.31257854

           Symmetry 3
                              Ey

               C #1 y    -5.68742146
               O #2 y    -8.31257854



                       Ex          Ey          Ez

      C #1    x   -5.687421    0.000000    0.000000
      C #1    y    0.000000   -5.687421    0.000000
      C #1    z    0.000000    0.000000   -5.637935

      O #2    x   -8.312579    0.000000    0.000000
      O #2    y    0.000000   -8.312579    0.000000
      O #2    z    0.000000    0.000000   -8.362065

 Evaluation of 1e integral derivatives required    1.20 seconds.
                    8815  records have been written to the Sort file.
  Total length of Sort file :             180513570  words.
 Evaluation of 2el integral derivatives

                      Two-electron integral gradient
                      ------------------------------

                         C #1 z    -6.6282454085
                         O #2 z     6.6282454085


 C #1       0.0000000000            0.0000000000           -6.6282454085
 O #2       0.0000000000            0.0000000000            6.6282454085


 Evaluation of 2e integral derivatives required  778.31 seconds.

                            Molecular gradient
                            ------------------

                         C #1 z     0.5261071195
                         O #2 z    -0.5261071195


 C #1       0.0000000000            0.0000000000            0.5261071195
 O #2       0.0000000000            0.0000000000           -0.5261071195


  Molecular gradient norm 0.744E+00

                            Molecular hessian
                            -----------------


           Symmetry 1

           C #1 z      O #2 z

 C #1 z    9.581793
 O #2 z   -9.581793    9.581793


           Symmetry 2

           C #1 x      O #2 x

 C #1 x    8.645091
 O #2 x   -8.645091    8.645091


           Symmetry 3

           C #1 y      O #2 y

 C #1 y    8.645091
 O #2 y   -8.645091    8.645091




           C #1 x      C #1 y      C #1 z      O #2 x      O #2 y      O #2 z

 C #1 x    8.645091
 C #1 y    0.000000    8.645091
 C #1 z    0.000000    0.000000    9.581793

 O #2 x   -8.645091    0.000000    0.000000    8.645091
 O #2 y    0.000000   -8.645091    0.000000    0.000000    8.645091
 O #2 z    0.000000    0.000000   -9.581793    0.000000    0.000000    9.581793




                           Total dipole moment
                           -------------------

                               au             Debye

                    z      0.55805381      1.41843155

  Conversion factor used: 1 a.u. =   2.54174691 Debye 



                     Total dipole moment derivatives
                     -------------------------------


           Symmetry 1
                              Ez

               C #1 z     0.48946122
               O #2 z    -0.48946122

           Symmetry 2
                              Ex

               C #1 x     0.18610096
               O #2 x    -0.18610096

           Symmetry 3
                              Ey

               C #1 y     0.18610096
               O #2 y    -0.18610096



                       Ex          Ey          Ez

      C #1    x    0.186101    0.000000    0.000000
      C #1    y    0.000000    0.186101    0.000000
      C #1    z    0.000000    0.000000    0.489461

      O #2    x   -0.186101    0.000000    0.000000
      O #2    y    0.000000   -0.186101    0.000000
      O #2    z    0.000000    0.000000   -0.489461

 @CHECKOUT-I, Total execution time (CPU/WALL):      779.50/     201.52 seconds.
--executable xvdint finished with status     0 in      201.76 seconds (walltime).
 --invoking executable--
/nfs/workspaces/public/cfour_mpi/bin/xjoda
  @GTFLGS-I, Hessian will be transformed to curvilinear coordinates.
  @GTFLGS-I, Hessian will be transformed to curvilinear coordinates.
  igrd and ihes are                      0                     1
  gradient from JOBARC 
   0.000000000000000   0.000000000000000   0.526107119489373
   0.000000000000000   0.000000000000000  -0.526107119489373
 
  @PROJFCM-I, Projecting force constant matrix onto totally symmetric subspace.
  Largest difference between matrix elements of symmetrized
  and unsymmetrized FCM :     0.4298783551E-12.
  read isotopes from ZMAT file 
 
  Summary of diagonal Born-Oppenheimer correction at the correlated level
  The total diagonal Born-Oppenheimer correction (DBOC) is:      0.0038687362 a.u.
  The total diagonal Born-Oppenheimer correction (DBOC) is:        849.089445 cm-1
  The total diagonal Born-Oppenheimer correction (DBOC) is:            10.157 kJ/mole
  hellooooooo 
  readis is  F
 
 @CHECKOUT-I, Total execution time (CPU/WALL):        0.01/       0.08 seconds.
--executable xjoda finished with status     0 in        0.13 seconds (walltime).
  The final electronic energy is      -113.027741393456367 a.u. 
  This computation required                         4191.52 seconds (walltime).
