 --invoking executable--
/nfs/workspaces/public/cfour_mpi/bin/xjoda


   *************************************************************************
         <<<     CCCCCC     CCCCCC   |||     CCCCCC     CCCCCC   >>>
       <<<      CCC        CCC       |||    CCC        CCC         >>>
      <<<      CCC        CCC        |||   CCC        CCC            >>>
    <<<        CCC        CCC        |||   CCC        CCC              >>>
      <<<      CCC        CCC        |||   CCC        CCC            >>>
       <<<      CCC        CCC       |||    CCC        CCC         >>>
         <<<     CCCCCC     CCCCCC   |||     CCCCCC     CCCCCC   >>>
   *************************************************************************

     ****************************************************************
     * CFOUR Coupled-Cluster techniques for Computational Chemistry *
     ****************************************************************
 

   Department of Chemistry                Institut fuer Physikalische Chemie
   University of Florida                  Universitaet Mainz
   Gainesville, FL 32611, USA             D-55099 Mainz, Germany

   Department of Chemistry                Fakultaet fuer Chemie und Biowiss.
   Johns Hopkins University               Karlsruher Institut fuer Technologie
   Baltimore, MD 21218, USA               D-76131 Karlsruhe, Germany

   Department of Chemistry                Department of Physical Chemistry
   Southern Methodist University          Eotvos Lorand University
   Dallas, TX 75275, USA                  H-1053 Budapest, Hungary

 
                       Version 2.1
 
                     vincent.theory.phys.ucl.ac.uk                     
                     Sun  2 Mar 04:45:26 GMT 2025                      
                     integer*8 version is running
 
********************************************************************************
*                          Input from ZMAT file                                *
********************************************************************************
Carbon Monoxide DBOC calculation                                                
C                                                                               
O 1 r                                                                           
                                                                                
r=1.210344827586207                                                             
                                                                                
                                                                                
*CFOUR(CALC=CCSD,BASIS=AUG-PCVQZ,SCF_CONV=10                                    
CC_CONV=14,DBOC=ON,MEMORY=500000000                                             
ZFIELD=-200)                                                                    
                                                                                
%isotopes                                                                       
12                                                                              
18                                                                              
********************************************************************************
  @GTFLGS-I, Hessian will be transformed to curvilinear coordinates.
    -------------------------------------------------------------------
                    CFOUR Control Parameters 
    -------------------------------------------------------------------
        External           Internal           Value            Units
          Name               Name
    -------------------------------------------------------------------
       ABCDTYPE             IABCDT         STANDARD    [  0]    ***   
       ANHARMONIC           IANHAR         OFF         [  0]    ***   
       ANH_ALGORIT          IANALG         STANDARD    [  0]    ***   
       ANH_DERIVAT          IANDER         SECOND      [  1]    ***   
       ANH_MODE             ANHMOD         VIBRATION   [  0]    ***   
       ANH_STEPSIZ          ICUBST             50000          x 10-6  
       ANH_SYMMETR          IANHSM         ABELIAN     [  0]    ***   
       AO_LADDERS           IAOLAD         SINGLEPASS  [  1]    ***   
       AV_SCF               IAVSCF         OFF         [  0]    ***   
       BASIS                IBASIS         AUG-PCVQZ   [ 52]    ***   
       BOTHVECTORS          BOTHVC         OFF         [  0]    ***   
       BOX_POTENT           IPIAB          OFF         [  0]    ***   
       BREIT                IBREIT         OFF         [  0]    ***   
       BRUCK_CONV           IBRTOL          10D-  4             ***   
       BRUECKNER            IBRKNR         OFF         [  0]    ***   
       BUFFERSIZE           IBUFFS              4096            ***   
       CACHE_RECS           ICHREC             10               ***   
       CALCLEVEL            ICLLVL         CCSD        [ 10]    ***   
       CCORBOPT             ICCORB         OFF         [  0]  x 0.01  
       CC_CONV              ICCCNV          10D- 14             ***   
       CC_EXPORDER          ICCEOR              5               ***   
       CC_EXTRAPOL          ICCEXT         DIIS        [  1]    ***   
       CC_GUESS             ICCGES         MP2         [  0]    ***   
       CC_MAXCYC            ICCCYC            100              cycles 
       CC_PROGRAM           ICCPRO         VCC         [  0]    ***   
       CHARGE               ICHRGE              0               ***   
       CHOLESKY             ICHOLE         OFF         [  0]    ***   
       CIS_CONV             ICISTL              5               ***   
       COMM_SIZE            IPSIZE            ***               ***   
       CONSTANT             ICONST         OLD         [  1]    ***   
       CONTINUUM            ICONTU         NONE        [  0]    ***   
       CONTRACTION          ICNTYP         GENERAL     [  1]    ***   
       COORDINATES          ICOORD         INTERNAL    [  0]    ***   
       CPHF_CONVER          ICPHFT          10D- 16             ***   
       CPHF_MAXCYC          ICPHFC             64              cycles 
       CUBIC                ICUBIC         OFF         [  0]    ***   
       CURVILINEAR          ICURVY         ON          [  1]    ***   
       DBOC                 IDBOC          ON          [  1]    ***   
       DCT                  IDCT           OFF         [  0]    ***   
       DERIV_LEV            IDRLVL         SECOND      [  2]    ***   
       DEVMEM_SIZE          IDVMEM          50000000           MByte  
       DIAG_MRCC            IEOMST          10D-  0             ***   
       DIFF_TYPE            IDIFTY         RELAXED     [  0]    ***   
       DIRECT               IDIRCT         OFF         [  0]    ***   
       DROPMO               IDRPMO      NONE         
       ECP                  IECP           OFF         [  0]    ***   
       EIGENVECTOR          IVEC                1               ***   
       EL_ANHARM            IELANH         OFF         [  0]    ***   
       EOMFOLLOW            IEOMSR         ENERGY      [  0]    ***   
       EOMIP                IEOMIP         OFF         [  0]    ***   
       EOMLEVEL             HBARFM         SAME        [  0]    ***   
       EOM_MRCC             IMRCCE         NEW         [  1]    ***   
       EOM_NONIT            EOMNON         OFF         [  0]    ***   
       EOM_NSING            IEOMSI          10D-  0             ***   
       EOM_NSTATES          IMRCCD         DAVIDSON    [  0]    ***   
       EOM_NTRIP            IEOMTR          10D-  0             ***   
       EOM_ORDER            IEXORD         ENERGY      [  0]    ***   
       EOM_PROPSTA          IEOMST              0               ***   
       ESTATE_CONV          IEXTOL          10D-  5             ***   
       ESTATE_DIAG          IEXDIG         ITERATIVE   [  0]    ***   
       ESTATE_LOCK          IESLOC         ON          [  1]    ***   
       ESTATE_MAXC          IEXMXC             40               ***   
       ESTATE_PROP          IEXPRP         OFF         [  0]    ***   
       EVAL_HESS            IRECAL              0            # of cyc.
       EXCITATION           IEXCIT              0               ***   
       EXCITE               IEXCIT         NONE        [  0]    ***   
       EXTERN_POT           IEXPOT         OFF         [  0]    ***   
       FCGRADNEW            IFCGNW         OFF         [  0]    ***   
       FC_FIELD             IFINFC              0             x 10-6  
       FD_CALTYPE           IFDCAL         GRADONLY    [  0]    ***   
       FD_PROJECT           IFDPRJ         OFF         [  1]    ***   
       FD_STEPSIZE          IDISFD              0            10-4 bohr
       FD_USEGROUP          IFDGRP         FULL        [  0]    ***   
       FILE_RECSIZ          IFLREC              4096           words  
       FINITE_PERT          IFIPER              0             x 10-6  
       FIXGEOM              IFIXGM         OFF         [  0]    ***   
       FOCK                 IFOCK          AO          [  1]    ***   
       FREQ_ALGORI          IVIALG         STANDARD    [  0]    ***   
       FROZEN_CORE          IFROCO         OFF         [  0]    ***   
       GAMMA_ABCD           IGABCD         STORE       [  0]    ***   
       GAMMA_ABCI           IGABCI         STORE       [  0]    ***   
       GENBAS_1             IGNBS1              0               ***   
       GENBAS_2             IGNBS2              0               ***   
       GENBAS_3             IGNBS3              0               ***   
       GENBAS_4             IGNBS4              0               ***   
       GEO_CONV             ICONTL              5              H/bohr 
       GEO_MAXCYC           IOPTCY             50               ***   
       GEO_MAXSTEP          IMXSTP            300            millibohr
       GEO_METHOD           INR            SINGLE_POINT[  5]    ***   
       GIAO                 IGIAO          OFF         [  1]    ***   
       GIMIC                IGIMIC         OFF         [  0]    ***   
       GRID                 IGRID          OFF         [  0]    ***   
       GRID_ALGO            IGALGO         SERIAL      [  0]    ***   
       GUESS                IGUESS         MOREAD      [  0]    ***   
       HBAR                 IHBAR          OFF         [  0]    ***   
       HESS_TYPE            IHESTP         SCF         [  0]    ***   
       HF2_FILE             IHF2Fl         USE         [  1]    ***   
       HFSTABILITY          ISTABL         OFF         [  0]    ***   
       INCORE               INCORE         OFF         [  0]    ***   
       INPUT_MRCC           IMRCC          ON          [  1]    ***   
       INTEGRALS            INTTYP         VMOL        [  1]    ***   
       JODA_PRINT           IJPRNT              0               ***   
       KEYWORD_OUT          IDMPKW         NO          [  0]    ***   
       LINDEP_TOL           ILINDP              8               ***   
       LINEQ_CONV           IZTACN          10D-  7           cycles  
       LINEQ_EXPOR          ILMAXD              5               ***   
       LINEQ_MAXCY          ILMAXC            100               ***   
       LINEQ_TYPE           ILTYPE         DIIS        [  1]    ***   
       LOCK_ORBOCC          ILOCOC         OFF         [  0]    ***   
       MEMORY_SIZE          IMEMSZ         500000000           words  
       MEM_UNIT             IMEMU          INTEGERWORDS[  0]    ***   
       MRCC                 IMRCCC         OFF         [  0]    ***   
       MULTIPLICTY          IMULTP              1               ***   
       NACOUPLING           IVCOUP         OFF         [  0]    ***   
       NEGEVAL              IDIE           ABORT       [  0]    ***   
       NEWNORM              INEWNO         OFF         [  0]    ***   
       NON-HF               INONHF         OFF         [  0]    ***   
       NTOP_TAMP            ITOPT2             15               ***   
       NUC_MODEL            INUCMO         POINT       [  0]    ***   
       OCCUPATION           IOCCU   ESTIMATED BY SCF 
       OPEN-SHELL           IOPEN          SPIN-ORBITAL[  0]    ***   
       OPTVIB               IOPTVB         OFF         [  0]    ***   
       ORBITALS             IORBTP         STANDARD    [  0]    ***   
       PARALLEL             IPARAL         ON          [  1]    ***   
       PARA_INT             IPINTS         ON          [  1]    ***   
       PARA_PRINT           IPPRIN              0               ***   
       PERT_ORB             IPTORB         STANDARD    [  0]    ***   
       POINTS               IGRDFD              0               ***   
       PRINT                IPRNT               0               ***   
       PROPS                IPROPS         OFF         [  0]    ***   
       PROP_INTEGR          IINTYP         INTERNAL    [  0]    ***   
       PSI                  IPSI           OFF         [  0]    ***   
       QC_ALG               IQCALG         FLM         [  0]    ***   
       QC_LINALG            IQCLIN         TRIDIAG     [  2]    ***   
       QC_MAXCYC            IQCMAX          10D-100           cycles  
       QC_MAXSCFCY          IQCMSC          10D- 15           cycles  
       QC_RTRUST            IQCRTR          10D-  0           x 10-3  
       QC_SKIPSCF           IQCSKI         OFF         [  0]    ***   
       QC_START             IQCSTA          10D-  1             ***   
       QRHFGUESS            IQGUES         OFF         [  0]    ***   
       QUARTIC              IQUART         OFF         [  0]    ***   
       RAMAN_INT            IRAMIN         OFF         [  0]    ***   
       RAMAN_ORB            IRAMRE         UNRELAXED   [  0]    ***   
       RDO                  IRDOFM         ON          [  1]    ***   
       REDUCE_REPR          REDREP         Ir          [  0]    ***   
       REFERENCE            IREFNC         RHF         [  0]    ***   
       RELATIVIST           IRELAT         OFF         [  0]    ***   
       RELAX_DENS           IRDENS         ON          [  1]    ***   
       RESET_FLAGS          IRESET         OFF         [  0]    ***   
       RESTART_CC           ICCRES         OFF         [  0]    ***   
       ROT_EVEC             ROTVEC              0               ***   
       SAVE_INTS            ISVINT         OFF         [  0]    ***   
       SCALE_ON             ISTCRT              0               ***   
       SCF_CONV             ISCFCV          10D- 10             ***   
       SCF_DAMPING          IDAMP               0             x 10-3  
       SCF_EXPORDE          IRPPOR              6               ***   
       SCF_EXPSTAR          IRPPLS              8               ***   
       SCF_EXTRAPO          IRPP           ON          [  1]    ***   
       SCF_MAXCYC           ISCFCY            150              cycles 
       SCF_NOSTOP           ISCFST         OFF         [  0]    ***   
       SCF_PRINT            ISCFPR              0               ***   
       SCF_PROG             ISCFPR         SCF         [  0]    ***   
       SD_FIELD             IFINSD              0             x 10-6  
       SOPERT               IPERSO         OFF         [  0]    ***   
       SPHERICAL            IDFGHI         ON          [  1]    ***   
       SPINORBIT            ISOCAL         OFF         [  0]    ***   
       SPINROTATIO          ISRCON         OFF         [  0]    ***   
       SPIN_FLIP            ISPFLP         OFF         [  0]    ***   
       SPIN_ORBIT           ISPORB         OFF         [  0]    ***   
       SPIN_SCAL            ISCSMP         OFF         [  0]    ***   
       STEEPSCALE           ISTPSC              1000          x 10-3  
       SUBGROUP             ISUBGP         DEFAULT     [  0]    ***   
       SUBGRPAXIS           ISBXYZ         X           [  0]    ***   
       SYMMETRY             ISYM           ON          [  0]    ***   
       SYM_CHECK            ISYMCK         OVERRIDE    [  1]    ***   
       T3_EXTRAPOL          IT3EXT         OFF         [  0]    ***   
       T4_EXTRAPOL          IT4EXP         OFF         [  0]    ***   
       TAMP_SUM             IEVERY              5               ***   
       TESTSUITE            ITESTS         OFF         [  0]    ***   
       THERMOCH             ITHERM         OFF         [  0]    ***   
       TOL_CHOLESK          ITOLCH          10D-  4             ***   
       TRANGRAD             IRESRM         OFF         [  0]    ***   
       TRANS_INV            ITRAIN         IGNORE      [  1]    ***   
       TREAT_PERT           ITREAT         SIMULTANEOUS[  0]    ***   
       TRIP_ALGORI          ITRALG         NORMAL      [  0]    ***   
       UIJ_THRESHO          IUIJTH              1               ***   
       UNITS                IUNITS         ANGSTROM    [  0]    ***   
       UNOS                 IUNOS          OFF         [  0]    ***   
       UPDATE_HESS          IHUPDT         ON          [  1]    ***   
       VIBPHASE             ISETPH         STANDARD    [  0]    ***   
       VIBRATION            IVIB           ANALYTIC    [  1]    ***   
       VIB_ALGORIT          IGEALG         STANDARD    [  0]    ***   
       VNATORB              IVNORB         OFF         [  0]    ***   
       VTRAN                IVTRAN         FULL/PARTIAL[  0]    ***   
       XFIELD               IXEFLD              0             x 10-6  
       XFORM_TOL            IXFTOL          10D- 11             ***   
       YFIELD               IYEFLD              0             x 10-6  
       ZFIELD               IZEFLD            ***             x 10-6  
       ZSCALE_EXP           IZEXPS         OFF         [  0]    ***   
    -------------------------------------------------------------------
   2 entries found in Z-matrix 
   Job Title : Carbon Monoxide DBOC calculation                                                
   There are  1 unique internal coordinates.
   Of these,  0 will be optimized.
   User supplied Z-matrix: 
--------------------------------------------------------------------------------
       SYMBOL    BOND      LENGTH    ANGLE     ANGLE     DIHED     ANGLE
                  TO      (ANGST)    WRT      (DEG)      WRT      (DEG)
--------------------------------------------------------------------------------
        C    
        O          1         r    
                  *Initial values for internal coordinates* 
                      Name             Value
                        r               1.2103448276
--------------------------------------------------------------------------------
  read isotopes from ZMAT file 
   Rotational constants (in cm-1): 
          1.5982839042             1.5982839042
   Rotational constants (in MHz): 
      47915.3527346734         47915.3527346734
********************************************************************************
   The full molecular point group is CXv .
   The largest Abelian subgroup of the full molecular point group is C2v .
   The computational point group is C2v .
********************************************************************************
--------------------------------------------------------------------------------
   Analysis of internal coordinates specified by Z-matrix 
--------------------------------------------------------------------------------
   *The nuclear repulsion energy is   20.986168752136749 a.u.
   *There is   1 degree of freedom within the tot. symm. molecular subspace.
   *Z-matrix requests optimization of   0 coordinates.
   *The optimization is constrained.
   *The following   1 parameters can have non-zero 
    derivatives within the totally symmetric subspace:
             r    [ 1]
   *The following   0 parameters are to be optimized:

   *The following coordinates must be varied in an  unconstrained optimization.
             r    [ 1]
--------------------------------------------------------------------------------


 ----------------------------------------------------------------
         Coordinates used in calculation (QCOMP) 
 ----------------------------------------------------------------
 Z-matrix   Atomic            Coordinates (in bohr)
  Symbol    Number           X              Y              Z
 ----------------------------------------------------------------
     C         6        -0.00000000     0.00000000     1.37230682
     O         8         0.00000000     0.00000000    -0.91491390
 ----------------------------------------------------------------
 
   Interatomic distance matrix (Angstroms) 
 
                 C             O    
                [ 1]        [ 2]
  C    [ 1]     0.00000
  O    [ 2]     1.21035     0.00000
 rotcon2
   Rotational constants (in cm-1): 
          1.5982839042             0.0000000000
   Rotational constants (in MHz): 
      47915.3527346734             0.0000000000
  ECPDATA file not present.   Using default ECPDATA. 
  @GTFLGS-I, Hessian will be transformed to curvilinear coordinates.
  There are  218 basis functions.
 @CHECKOUT-I, Total execution time (CPU/WALL):        0.21/       0.31 seconds.
--executable xjoda finished with status     0 in        0.34 seconds (walltime).
 --invoking executable--
/nfs/workspaces/public/cfour_mpi/bin/xvmol
 SERIAL VERSION OF MOLECULE STARTED
********************************************************************************
                    INPUT FROM MOL FILE
********************************************************************************
INTGRL        1    0    1    0    0    0    0    0    0                         
         *** CFOUR Program System (Release V0.1) ***                            
Carbon Monoxide DBOC calculation                                                
    2    2 X  Y       0.10E-08              0    0                              
   9999.00      3.00                                                            
          6.00000000    1    5    1    1    1    1    1                         
C #1  -0.000000000000000   0.000000000000000   1.372306823465586                
   16    9                                                                      
   33980.0000000000       9.100000000000000E-005 -1.900000000000000E-005        
  0.000000000000000E+000  0.000000000000000E+000  0.000000000000000E+000        
  0.000000000000000E+000  0.000000000000000E+000  0.000000000000000E+000        
  0.000000000000000E+000                                                        
   5089.00000000000       7.040000000000000E-004 -1.510000000000000E-004        
  0.000000000000000E+000  0.000000000000000E+000  0.000000000000000E+000        
  0.000000000000000E+000  0.000000000000000E+000  0.000000000000000E+000        
  0.000000000000000E+000                                                        
   1157.00000000000       3.693000000000000E-003 -7.850000000000000E-004        
  0.000000000000000E+000  0.000000000000000E+000  0.000000000000000E+000        
  0.000000000000000E+000  0.000000000000000E+000  0.000000000000000E+000        
  0.000000000000000E+000                                                        
   326.600000000000       1.536000000000000E-002 -3.324000000000000E-003        
  0.000000000000000E+000  0.000000000000000E+000  0.000000000000000E+000        
  0.000000000000000E+000  0.000000000000000E+000  0.000000000000000E+000        
  0.000000000000000E+000                                                        
   106.100000000000       5.292900000000000E-002 -1.151200000000000E-002        
  0.000000000000000E+000  0.000000000000000E+000  0.000000000000000E+000        
  0.000000000000000E+000  0.000000000000000E+000  0.000000000000000E+000        
  0.000000000000000E+000                                                        
   38.1100000000000       0.147043000000000      -3.416000000000000E-002        
  0.000000000000000E+000  0.000000000000000E+000  0.000000000000000E+000        
  0.000000000000000E+000  0.000000000000000E+000  0.000000000000000E+000        
  0.000000000000000E+000                                                        
   14.7500000000000       0.305631000000000      -7.717300000000001E-002        
  0.000000000000000E+000  0.000000000000000E+000  0.000000000000000E+000        
  0.000000000000000E+000  0.000000000000000E+000  0.000000000000000E+000        
  0.000000000000000E+000                                                        
   6.03500000000000       0.399345000000000      -0.141493000000000             
  0.000000000000000E+000  0.000000000000000E+000  0.000000000000000E+000        
  0.000000000000000E+000  0.000000000000000E+000  0.000000000000000E+000        
  0.000000000000000E+000                                                        
   2.53000000000000       0.217051000000000      -0.118019000000000             
  0.000000000000000E+000  0.000000000000000E+000  0.000000000000000E+000        
  0.000000000000000E+000  0.000000000000000E+000  0.000000000000000E+000        
  0.000000000000000E+000                                                        
  0.735500000000000       1.589400000000000E-002  0.273806000000000             
   1.00000000000000       0.000000000000000E+000  0.000000000000000E+000        
  0.000000000000000E+000  0.000000000000000E+000  0.000000000000000E+000        
  0.000000000000000E+000                                                        
  0.290500000000000      -3.084000000000000E-003  0.586510000000000             
  0.000000000000000E+000   1.00000000000000       0.000000000000000E+000        
  0.000000000000000E+000  0.000000000000000E+000  0.000000000000000E+000        
  0.000000000000000E+000                                                        
  0.111100000000000       9.779999999999999E-004  0.285430000000000             
  0.000000000000000E+000  0.000000000000000E+000   1.00000000000000             
  0.000000000000000E+000  0.000000000000000E+000  0.000000000000000E+000        
  0.000000000000000E+000                                                        
   7.21600000000000       0.000000000000000E+000  0.000000000000000E+000        
  0.000000000000000E+000  0.000000000000000E+000  0.000000000000000E+000        
   1.00000000000000       0.000000000000000E+000  0.000000000000000E+000        
  0.000000000000000E+000                                                        
   19.5700000000000       0.000000000000000E+000  0.000000000000000E+000        
  0.000000000000000E+000  0.000000000000000E+000  0.000000000000000E+000        
  0.000000000000000E+000   1.00000000000000       0.000000000000000E+000        
  0.000000000000000E+000                                                        
   53.0730000000000       0.000000000000000E+000  0.000000000000000E+000        
  0.000000000000000E+000  0.000000000000000E+000  0.000000000000000E+000        
  0.000000000000000E+000  0.000000000000000E+000   1.00000000000000             
  0.000000000000000E+000                                                        
  4.145000000000000E-002  0.000000000000000E+000  0.000000000000000E+000        
  0.000000000000000E+000  0.000000000000000E+000  0.000000000000000E+000        
  0.000000000000000E+000  0.000000000000000E+000  0.000000000000000E+000        
   1.00000000000000                                                             
   10    8                                                                      
   34.5100000000000       5.378000000000000E-003  0.000000000000000E+000        
  0.000000000000000E+000  0.000000000000000E+000  0.000000000000000E+000        
  0.000000000000000E+000  0.000000000000000E+000  0.000000000000000E+000        
   7.91500000000000       3.613200000000000E-002  0.000000000000000E+000        
  0.000000000000000E+000  0.000000000000000E+000  0.000000000000000E+000        
  0.000000000000000E+000  0.000000000000000E+000  0.000000000000000E+000        
   2.36800000000000       0.142493000000000       0.000000000000000E+000        
  0.000000000000000E+000  0.000000000000000E+000  0.000000000000000E+000        
  0.000000000000000E+000  0.000000000000000E+000  0.000000000000000E+000        
  0.813200000000000       0.342150000000000        1.00000000000000             
  0.000000000000000E+000  0.000000000000000E+000  0.000000000000000E+000        
  0.000000000000000E+000  0.000000000000000E+000  0.000000000000000E+000        
  0.289000000000000       0.463864000000000       0.000000000000000E+000        
   1.00000000000000       0.000000000000000E+000  0.000000000000000E+000        
  0.000000000000000E+000  0.000000000000000E+000  0.000000000000000E+000        
  0.100700000000000       0.250028000000000       0.000000000000000E+000        
  0.000000000000000E+000   1.00000000000000       0.000000000000000E+000        
  0.000000000000000E+000  0.000000000000000E+000  0.000000000000000E+000        
   8.18200000000000       0.000000000000000E+000  0.000000000000000E+000        
  0.000000000000000E+000  0.000000000000000E+000   1.00000000000000             
  0.000000000000000E+000  0.000000000000000E+000  0.000000000000000E+000        
   24.1860000000000       0.000000000000000E+000  0.000000000000000E+000        
  0.000000000000000E+000  0.000000000000000E+000  0.000000000000000E+000        
   1.00000000000000       0.000000000000000E+000  0.000000000000000E+000        
   71.4940000000000       0.000000000000000E+000  0.000000000000000E+000        
  0.000000000000000E+000  0.000000000000000E+000  0.000000000000000E+000        
  0.000000000000000E+000   1.00000000000000       0.000000000000000E+000        
  3.218000000000000E-002  0.000000000000000E+000  0.000000000000000E+000        
  0.000000000000000E+000  0.000000000000000E+000  0.000000000000000E+000        
  0.000000000000000E+000  0.000000000000000E+000   1.00000000000000             
    6    6                                                                      
   1.84800000000000        1.00000000000000       0.000000000000000E+000        
  0.000000000000000E+000  0.000000000000000E+000  0.000000000000000E+000        
  0.000000000000000E+000                                                        
  0.649000000000000       0.000000000000000E+000   1.00000000000000             
  0.000000000000000E+000  0.000000000000000E+000  0.000000000000000E+000        
  0.000000000000000E+000                                                        
  0.228000000000000       0.000000000000000E+000  0.000000000000000E+000        
   1.00000000000000       0.000000000000000E+000  0.000000000000000E+000        
  0.000000000000000E+000                                                        
   8.65600000000000       0.000000000000000E+000  0.000000000000000E+000        
  0.000000000000000E+000   1.00000000000000       0.000000000000000E+000        
  0.000000000000000E+000                                                        
   33.2130000000000       0.000000000000000E+000  0.000000000000000E+000        
  0.000000000000000E+000  0.000000000000000E+000   1.00000000000000             
  0.000000000000000E+000                                                        
  7.660000000000000E-002  0.000000000000000E+000  0.000000000000000E+000        
  0.000000000000000E+000  0.000000000000000E+000  0.000000000000000E+000        
   1.00000000000000                                                             
    4    4                                                                      
   1.41900000000000        1.00000000000000       0.000000000000000E+000        
  0.000000000000000E+000  0.000000000000000E+000                                
  0.485000000000000       0.000000000000000E+000   1.00000000000000             
  0.000000000000000E+000  0.000000000000000E+000                                
   24.6940000000000       0.000000000000000E+000  0.000000000000000E+000        
   1.00000000000000       0.000000000000000E+000                                
  0.187000000000000       0.000000000000000E+000  0.000000000000000E+000        
  0.000000000000000E+000   1.00000000000000                                     
    2    2                                                                      
   1.01100000000000        1.00000000000000       0.000000000000000E+000        
  0.424000000000000       0.000000000000000E+000   1.00000000000000             
          8.00000000    1    5    1    1    1    1    1                         
O #2   0.000000000000000   0.000000000000000  -0.914913896376990                
   16    9                                                                      
   61420.0000000000       9.000000000000001E-005 -2.000000000000000E-005        
  0.000000000000000E+000  0.000000000000000E+000  0.000000000000000E+000        
  0.000000000000000E+000  0.000000000000000E+000  0.000000000000000E+000        
  0.000000000000000E+000                                                        
   9199.00000000000       6.980000000000001E-004 -1.590000000000000E-004        
  0.000000000000000E+000  0.000000000000000E+000  0.000000000000000E+000        
  0.000000000000000E+000  0.000000000000000E+000  0.000000000000000E+000        
  0.000000000000000E+000                                                        
   2091.00000000000       3.664000000000000E-003 -8.290000000000000E-004        
  0.000000000000000E+000  0.000000000000000E+000  0.000000000000000E+000        
  0.000000000000000E+000  0.000000000000000E+000  0.000000000000000E+000        
  0.000000000000000E+000                                                        
   590.900000000000       1.521800000000000E-002 -3.508000000000000E-003        
  0.000000000000000E+000  0.000000000000000E+000  0.000000000000000E+000        
  0.000000000000000E+000  0.000000000000000E+000  0.000000000000000E+000        
  0.000000000000000E+000                                                        
   192.300000000000       5.242300000000000E-002 -1.215600000000000E-002        
  0.000000000000000E+000  0.000000000000000E+000  0.000000000000000E+000        
  0.000000000000000E+000  0.000000000000000E+000  0.000000000000000E+000        
  0.000000000000000E+000                                                        
   69.3200000000000       0.145921000000000      -3.626100000000000E-002        
  0.000000000000000E+000  0.000000000000000E+000  0.000000000000000E+000        
  0.000000000000000E+000  0.000000000000000E+000  0.000000000000000E+000        
  0.000000000000000E+000                                                        
   26.9700000000000       0.305258000000000      -8.299200000000000E-002        
  0.000000000000000E+000  0.000000000000000E+000  0.000000000000000E+000        
  0.000000000000000E+000  0.000000000000000E+000  0.000000000000000E+000        
  0.000000000000000E+000                                                        
   11.1000000000000       0.398508000000000      -0.152090000000000             
  0.000000000000000E+000  0.000000000000000E+000  0.000000000000000E+000        
  0.000000000000000E+000  0.000000000000000E+000  0.000000000000000E+000        
  0.000000000000000E+000                                                        
   4.68200000000000       0.216980000000000      -0.115331000000000             
  0.000000000000000E+000  0.000000000000000E+000  0.000000000000000E+000        
  0.000000000000000E+000  0.000000000000000E+000  0.000000000000000E+000        
  0.000000000000000E+000                                                        
   1.42800000000000       1.759400000000000E-002  0.288979000000000             
   1.00000000000000       0.000000000000000E+000  0.000000000000000E+000        
  0.000000000000000E+000  0.000000000000000E+000  0.000000000000000E+000        
  0.000000000000000E+000                                                        
  0.554700000000000      -2.502000000000000E-003  0.586128000000000             
  0.000000000000000E+000   1.00000000000000       0.000000000000000E+000        
  0.000000000000000E+000  0.000000000000000E+000  0.000000000000000E+000        
  0.000000000000000E+000                                                        
  0.206700000000000       9.540000000000000E-004  0.277624000000000             
  0.000000000000000E+000  0.000000000000000E+000   1.00000000000000             
  0.000000000000000E+000  0.000000000000000E+000  0.000000000000000E+000        
  0.000000000000000E+000                                                        
   12.9740000000000       0.000000000000000E+000  0.000000000000000E+000        
  0.000000000000000E+000  0.000000000000000E+000  0.000000000000000E+000        
   1.00000000000000       0.000000000000000E+000  0.000000000000000E+000        
  0.000000000000000E+000                                                        
   34.9000000000000       0.000000000000000E+000  0.000000000000000E+000        
  0.000000000000000E+000  0.000000000000000E+000  0.000000000000000E+000        
  0.000000000000000E+000   1.00000000000000       0.000000000000000E+000        
  0.000000000000000E+000                                                        
   93.8810000000000       0.000000000000000E+000  0.000000000000000E+000        
  0.000000000000000E+000  0.000000000000000E+000  0.000000000000000E+000        
  0.000000000000000E+000  0.000000000000000E+000   1.00000000000000             
  0.000000000000000E+000                                                        
  6.959000000000000E-002  0.000000000000000E+000  0.000000000000000E+000        
  0.000000000000000E+000  0.000000000000000E+000  0.000000000000000E+000        
  0.000000000000000E+000  0.000000000000000E+000  0.000000000000000E+000        
   1.00000000000000                                                             
   10    8                                                                      
   63.4200000000000       6.044000000000000E-003  0.000000000000000E+000        
  0.000000000000000E+000  0.000000000000000E+000  0.000000000000000E+000        
  0.000000000000000E+000  0.000000000000000E+000  0.000000000000000E+000        
   14.6600000000000       4.179900000000000E-002  0.000000000000000E+000        
  0.000000000000000E+000  0.000000000000000E+000  0.000000000000000E+000        
  0.000000000000000E+000  0.000000000000000E+000  0.000000000000000E+000        
   4.45900000000000       0.161143000000000       0.000000000000000E+000        
  0.000000000000000E+000  0.000000000000000E+000  0.000000000000000E+000        
  0.000000000000000E+000  0.000000000000000E+000  0.000000000000000E+000        
   1.53100000000000       0.356731000000000        1.00000000000000             
  0.000000000000000E+000  0.000000000000000E+000  0.000000000000000E+000        
  0.000000000000000E+000  0.000000000000000E+000  0.000000000000000E+000        
  0.530200000000000       0.448309000000000       0.000000000000000E+000        
   1.00000000000000       0.000000000000000E+000  0.000000000000000E+000        
  0.000000000000000E+000  0.000000000000000E+000  0.000000000000000E+000        
  0.175000000000000       0.244940000000000       0.000000000000000E+000        
  0.000000000000000E+000   1.00000000000000       0.000000000000000E+000        
  0.000000000000000E+000  0.000000000000000E+000  0.000000000000000E+000        
   14.4750000000000       0.000000000000000E+000  0.000000000000000E+000        
  0.000000000000000E+000  0.000000000000000E+000   1.00000000000000             
  0.000000000000000E+000  0.000000000000000E+000  0.000000000000000E+000        
   42.7300000000000       0.000000000000000E+000  0.000000000000000E+000        
  0.000000000000000E+000  0.000000000000000E+000  0.000000000000000E+000        
   1.00000000000000       0.000000000000000E+000  0.000000000000000E+000        
   126.140000000000       0.000000000000000E+000  0.000000000000000E+000        
  0.000000000000000E+000  0.000000000000000E+000  0.000000000000000E+000        
  0.000000000000000E+000   1.00000000000000       0.000000000000000E+000        
  5.348000000000000E-002  0.000000000000000E+000  0.000000000000000E+000        
  0.000000000000000E+000  0.000000000000000E+000  0.000000000000000E+000        
  0.000000000000000E+000  0.000000000000000E+000   1.00000000000000             
    6    6                                                                      
   3.77500000000000        1.00000000000000       0.000000000000000E+000        
  0.000000000000000E+000  0.000000000000000E+000  0.000000000000000E+000        
  0.000000000000000E+000                                                        
   1.30000000000000       0.000000000000000E+000   1.00000000000000             
  0.000000000000000E+000  0.000000000000000E+000  0.000000000000000E+000        
  0.000000000000000E+000                                                        
  0.444000000000000       0.000000000000000E+000  0.000000000000000E+000        
   1.00000000000000       0.000000000000000E+000  0.000000000000000E+000        
  0.000000000000000E+000                                                        
   14.9270000000000       0.000000000000000E+000  0.000000000000000E+000        
  0.000000000000000E+000   1.00000000000000       0.000000000000000E+000        
  0.000000000000000E+000                                                        
   57.5440000000000       0.000000000000000E+000  0.000000000000000E+000        
  0.000000000000000E+000  0.000000000000000E+000   1.00000000000000             
  0.000000000000000E+000                                                        
  0.154000000000000       0.000000000000000E+000  0.000000000000000E+000        
  0.000000000000000E+000  0.000000000000000E+000  0.000000000000000E+000        
   1.00000000000000                                                             
    4    4                                                                      
   2.66600000000000        1.00000000000000       0.000000000000000E+000        
  0.000000000000000E+000  0.000000000000000E+000                                
  0.859000000000000       0.000000000000000E+000   1.00000000000000             
  0.000000000000000E+000  0.000000000000000E+000                                
   26.4830000000000       0.000000000000000E+000  0.000000000000000E+000        
   1.00000000000000       0.000000000000000E+000                                
  0.324000000000000       0.000000000000000E+000  0.000000000000000E+000        
  0.000000000000000E+000   1.00000000000000                                     
    2    2                                                                      
   1.84600000000000        1.00000000000000       0.000000000000000E+000        
  0.714000000000000       0.000000000000000E+000   1.00000000000000             
FINISH                                                                          
 
********************************************************************************
 ONE- AND TWO-ELECTRON INTEGRALS OVER SYMMETRY-ADAPTED AOS ARE CALCULATED.

  SPHERICAL HARMONICS ARE USED.
  
  INTEGRALS LESS THAN  0.10E-13 ARE NEGLECTED.

  NUCLEAR REPULSION ENERGY :   20.9861687521 A.U.
  @MOLECU-I, ONE ELECTRON INTEGRALS (CPU/WALL):        0.09/       0.13 SECONDS.
  @TWOEL-I,    4561068 INTEGRALS OF SYMMETRY TYPE  I I I I
  @TWOEL-I,   19597705 INTEGRALS OF SYMMETRY TYPE  I J I J
  @TWOEL-I,   10326499 INTEGRALS OF SYMMETRY TYPE  I I J J
  @TWOEL-I,   14500668 INTEGRALS OF SYMMETRY TYPE  I J K L
  @TWOEL-I, TOTAL NUMBER OF 2-E INTEGRALS   48985940.
  @MOLECU-I, TWO ELECTRON INTEGRALS (CPU/WALL):      241.11/      32.61 SECONDS.
 @CHECKOUT-I, Total execution time (CPU/WALL):      241.22/      32.78 seconds.

Running with 14 threads/proc

--executable xvmol finished with status     0 in       32.83 seconds (walltime).
 --invoking executable--
/nfs/workspaces/public/cfour_mpi/bin/xvmol2ja
 @GETMEM-I,  Allocated    3814 MB of main memory.
 @CHECKOUT-I, Total execution time (CPU/WALL):        0.17/       0.09 seconds.
--executable xvmol2ja finished with status     0 in        0.11 seconds (walltime).
 --invoking executable--
/nfs/workspaces/public/cfour_mpi/bin/xvprop
 @GETMEM-I,  Allocated    3814 MB of main memory.
   Property integrals will be calculated.
    --------------------------------------------------------------
                                   Property evaluated at 
    Property type                X             Y             Z
    --------------------------------------------------------------
    Dipole moment               ----          ----          ----  
    Quadrupole moment           ----          ----          ----  
    Octopole moment             ----          ----          ----  
    Relativisitic corr.         ----          ----          ----  
    Second moment            0.0000000     0.0000000     0.0000000
    Electron density         0.0000000     0.0000000     1.3723068
    Electron density         0.0000000     0.0000000    -0.9149139
    Field gradient           0.0000000     0.0000000     1.3723068
    Field gradient           0.0000000     0.0000000    -0.9149139
    Potential                0.0000000     0.0000000     1.3723068
    Potential                0.0000000     0.0000000    -0.9149139
    --------------------------------------------------------------
 @CHECKOUT-I, Total execution time (CPU/WALL):        1.60/       1.64 seconds.
--executable xvprop finished with status     0 in        1.67 seconds (walltime).
 --invoking executable--
/nfs/workspaces/public/cfour_mpi/bin/xvscf
  There are  218 functions in the AO basis.

  There are 4 irreducible representations.

       Irrep        # of functions
         1                 86
         2                 52
         3                 52
         4                 28


  Parameters for SCF calculation: 
        SCF reference function:  RHF  
  Maximum number of iterations:  150
     Full symmetry point group: CXv 
     Computational point group: C2v 
        Initial density matrix: MOREAD                 
     SCF convergence tolerance: 10**(-10)
  DIIS convergence acceleration:  ON
          Latest start for DIIS:   8
                     DIIS order:   6

  Memory information:    2523578 words required.
  Fock matrices are constructed from AO integral file.
 @GETMEM-I,  Allocated      19 MB of main memory.
  Initialization and symmetry analysis required      0.002 seconds.

  Adding electric field perturbation to one-electron Hamiltonian.
  Field direction     : Z
  Field strength      : -0.0002000 a.u.

  @INITGES-I, Occupancies from core Hamiltonian:

          Alpha population by irrep:   5    1    1    0
           Beta population by irrep:   5    1    1    0


 total no. of electrons in initial guess :  0.000000000000000E+000
  --------------------------------------------------------------------
  Iteration         Total Energy            Largest Density Difference
  --------------------------------------------------------------------
       0            20.986351658090246              0.0000000000D+00
   current occupation vector 
     5  1  1  0
     5  1  1  0
       1           -92.347209132393019              0.1826956786D+02
   current occupation vector 
     5  1  1  0
     5  1  1  0
       2           -97.758928809351659              0.1826505656D+02
   current occupation vector 
     5  1  1  0
     5  1  1  0
       3          -103.503395850419935              0.9466207715D+01
   current occupation vector 
     5  1  1  0
     5  1  1  0
       4           -99.976121783904290              0.7318544177D+01
   current occupation vector 
     5  1  1  0
     5  1  1  0
       5          -102.625998967231638              0.6068334308D+01
   current occupation vector 
     5  1  1  0
     5  1  1  0
       6           -99.365654261297621              0.5879752901D+01
   current occupation vector 
     5  1  1  0
     5  1  1  0
       7          -102.606352740245740              0.5902426805D+01
   current occupation vector 
     5  1  1  0
     5  1  1  0
       8           -99.244119280599037              0.5896749316D+01
   current occupation vector 
     5  1  1  0
     5  1  1  0
       9          -110.111316919995190              0.4460295146D+01
   current occupation vector 
     5  1  1  0
     5  1  1  0
      10          -111.928622834054053              0.1046942176D+01
   current occupation vector 
     5  1  1  0
     5  1  1  0
      11          -112.721950075030165              0.6039764845D+00
   current occupation vector 
     5  1  1  0
     5  1  1  0
      12          -112.764488465847521              0.1561324477D+00
   current occupation vector 
     5  1  1  0
     5  1  1  0
      13          -112.765515585492622              0.3943130219D-01
   current occupation vector 
     5  1  1  0
     5  1  1  0
      14          -112.765669485094307              0.1735094126D-01
   current occupation vector 
     5  1  1  0
     5  1  1  0
      15          -112.765690265507558              0.8957953603D-02
   current occupation vector 
     5  1  1  0
     5  1  1  0
      16          -112.765690476199907              0.6539165194D-03
   current occupation vector 
     5  1  1  0
     5  1  1  0
      17          -112.765690484819928              0.1295105189D-03
   current occupation vector 
     5  1  1  0
     5  1  1  0
      18          -112.765690485130605              0.3024261188D-04
   current occupation vector 
     5  1  1  0
     5  1  1  0
      19          -112.765690485144901              0.6176000830D-05
   current occupation vector 
     5  1  1  0
     5  1  1  0
      20          -112.765690485144447              0.1058235236D-05
   current occupation vector 
     5  1  1  0
     5  1  1  0
      21          -112.765690485145640              0.1287285503D-06
   current occupation vector 
     5  1  1  0
     5  1  1  0
      22          -112.765690485144248              0.2727259196D-07
   current occupation vector 
     5  1  1  0
     5  1  1  0
      23          -112.765690485144987              0.1496340074D-07
   current occupation vector 
     5  1  1  0
     5  1  1  0
      24          -112.765690485144134              0.2819797174D-09
   current occupation vector 
     5  1  1  0
     5  1  1  0
      25          -112.765690485145498              0.1332793875D-09
   current occupation vector 
     5  1  1  0
     5  1  1  0
      26          -112.765690485144447              0.1052078424D-09
   current occupation vector 
     5  1  1  0
     5  1  1  0
      27          -112.765690485144646              0.1276581063D-09
   current occupation vector 
     5  1  1  0
     5  1  1  0
      28          -112.765690485144589              0.1240183511D-09
   current occupation vector 
     5  1  1  0
     5  1  1  0

  SCF has converged.

 Density matrix saved to file den.dat
 total electron number:   14.0000000000000     
     E(SCF)=      -112.765690485144958              0.7355760445D-10

  Eigenvector printing suppressed.

 @PUTMOS-I, Writing converged MOs to NEWMOS. 
 @PUTMOS-I, Symmetry   1 Full Blocks 21 Partial Blocksize   2
 @PUTMOS-I, Symmetry   2 Full Blocks 13 Partial Blocksize   0
 @PUTMOS-I, Symmetry   3 Full Blocks 13 Partial Blocksize   0
 @PUTMOS-I, Symmetry   4 Full Blocks  7 Partial Blocksize   0
 @PUTFOCK-I, Writing converged Fock matrix to NEWFOCK. 
 @PUTFOCK-I, Symmetry   1 Full Blocks 21 Partial Blocksize   2
 @PUTFOCK-I, Symmetry   2 Full Blocks 13 Partial Blocksize   0
 @PUTFOCK-I, Symmetry   3 Full Blocks 13 Partial Blocksize   0
 @PUTFOCK-I, Symmetry   4 Full Blocks  7 Partial Blocksize   0


 
  ORBITAL EIGENVALUES (ALPHA)  (1H = 27.2113834 eV)

       MO #        E(hartree)               E(eV)           FULLSYM    COMPSYM
       ----   --------------------   --------------------   -------   ---------
    1     1         -20.6669797272        -562.3771090760     SG+        A1 (1)
    2     2         -11.3967079031        -310.1201882490     SG+        A1 (1)
    3     3          -1.4669281543         -39.9171444274     SG+        A1 (1)
    4     4          -0.7981805101         -21.7195958819     SG+        A1 (1)
    5    87          -0.6067487672         -16.5104733306      PI        B1 (2)
    6   139          -0.6067487672         -16.5104733306      PI        B2 (3)
    7     5          -0.5628530842         -15.3160110712     SG+        A1 (1)
  +++++++++++++++++++++++++++++++++++++++++++++++++++++++++++++++++++++++++++++
    8    88           0.0584029276           1.5892244535      PI        B1 (2)
    9   140           0.0584029276           1.5892244535      PI        B2 (3)
   10     6           0.0618714915           1.6836088780     SG+        A1 (1)
   11     7           0.0720603389           1.9608615091     SG+        A1 (1)
   12    89           0.1204830602           3.2785107443      PI        B1 (2)
   13   141           0.1204830602           3.2785107443      PI        B2 (3)
   14     8           0.1568857319           4.2690778013     SG+        A1 (1)
   15    90           0.1669457188           4.5428239623      PI        B1 (2)
   16   142           0.1669457188           4.5428239623      PI        B2 (3)
   17   191           0.2272232805           6.1830598025      DE        A2 (4)
   18     9           0.2272232805           6.1830598025      DE        A1 (1)
   19    10           0.2284090470           6.2153261511     SG+        A1 (1)
   20    11           0.3001875674           8.1685189895     SG+        A1 (1)
   21   143           0.3120375223           8.4909726556      PI        B2 (3)
   22    91           0.3120375223           8.4909726556      PI        B1 (2)
   23    12           0.3875890276          10.5468336320     SG+        A1 (1)
   24   144           0.3952340457          10.7548651499      PI        B2 (3)
   25    92           0.3952340457          10.7548651499      PI        B1 (2)
   26    13           0.5091264307          13.8540345048     SG+        A1 (1)
   27    14           0.5395576189          14.6821092347      DE        A1 (1)
   28   192           0.5395576189          14.6821092347      DE        A2 (4)
   29    15           0.6138490661          16.7036822872     SG+        A1 (1)
   30    93           0.6253828122          17.0175314740      PI        B1 (2)
   31   145           0.6253828122          17.0175314740      PI        B2 (3)
   32    94           0.7465968721          20.3159337316      PH        B1 (2)
   33   146           0.7465968721          20.3159337316      PH        B2 (3)
   34    16           0.7645232054          20.8037340604      DE        A1 (1)
   35   193           0.7645232054          20.8037340604      DE        A2 (4)
   36    17           0.7769152441          21.1409385759     SG+        A1 (1)
   37   147           0.8130539496          22.1243227477      PI        B2 (3)
   38    95           0.8130539496          22.1243227478      PI        B1 (2)
   39    18           0.8581806325          23.3522822161     SG+        A1 (1)
   40    19           0.8753894140          23.8205569676     SG+        A1 (1)
   41   194           0.8859084319          24.1067939965      DE        A2 (4)
   42    20           0.8859084319          24.1067939965      DE        A1 (1)
   43   148           0.8875152650          24.1505181486      PI        B2 (3)
   44    96           0.8875152650          24.1505181486      PI        B1 (2)
   45   149           1.0590339702          28.8177793976      PI        B2 (3)
   46    97           1.0590339702          28.8177793976      PI        B1 (2)
   47    21           1.1484717332          31.2515046562     SG+        A1 (1)
   48    98           1.4415916531          39.2277031781      PH        B1 (2)
   49   150           1.4415916531          39.2277031781      PH        B2 (3)
   50    22           1.4454903020          39.3337908085     SG+        A1 (1)
   51   195           1.5312642808          41.6678194306      DE        A2 (4)
   52    23           1.5312642808          41.6678194306      DE        A1 (1)
   53   151           1.5651268222          42.5892660291      PI        B2 (3)
   54    99           1.5651268222          42.5892660291      PI        B1 (2)
   55    24           1.6654245223          45.3185051997     SG+        A1 (1)
   56   100           1.7433782414          47.4397337366      PI        B1 (2)
   57   152           1.7433782414          47.4397337366      PI        B2 (3)
   58   196           1.7568838538          47.8072401357      DE        A2 (4)
   59    25           1.7568838538          47.8072401357      DE        A1 (1)
   60    26           1.8006859730          48.9991563947     SG+        A1 (1)
   61   153           2.0075653737          54.6286310853      PI        B2 (3)
   62   101           2.0075653737          54.6286310853      PI        B1 (2)
   63    27           2.0872055885          56.7957515031     SG+        A1 (1)
   64   197           2.0996101196          57.1332959538      PI        A2 (4)
   65    28           2.0996101196          57.1332959538      PI        A1 (1)
   66   198           2.1798647966          59.3171367411      DE        A2 (4)
   67    29           2.1798647966          59.3171367411      DE        A1 (1)
   68   102           2.2443986058          61.0731909637      PH        B1 (2)
   69   154           2.2443986058          61.0731909637      PH        B2 (3)
   70   155           2.3073232728          62.7854582039      PI        B2 (3)
   71   103           2.3073232728          62.7854582039      PI        B1 (2)
   72    30           2.3080428586          62.8050391285     SG+        A1 (1)
   73   156           2.3331180943          63.4873709827      PH        B2 (3)
   74   104           2.3331180943          63.4873709827      PH        B1 (2)
   75   199           2.3506760888          63.9651483003      DE        A2 (4)
   76    31           2.3506760888          63.9651483003      DE        A1 (1)
   77    32           2.4812300112          67.5177011391     SG+        A1 (1)
   78   105           2.5771427482          70.1276193975      PI        B1 (2)
   79   157           2.5771427482          70.1276193975      PI        B2 (3)
   80   158           2.7624475428          75.1700192082      PI        B2 (3)
   81   106           2.7624475428          75.1700192082      PI        B1 (2)
   82    33           2.8280168147          76.9542498060     SG+        A1 (1)
   83    34           2.9391554198          79.9784850003      DE        A1 (1)
   84   200           2.9391554198          79.9784850004      DE        A2 (4)
   85    35           3.4749614517          94.5585083637     SG+        A1 (1)
   86    36           3.7114202688         100.9928798919      PI        A1 (1)
   87   201           3.7114202688         100.9928798919      PI        A2 (4)
   88   159           3.7149122886         101.0879025818      PI        B2 (3)
   89   107           3.7149122886         101.0879025818      PI        B1 (2)
   90    37           3.9181130956         106.6172776494     SG+        A1 (1)
   91   160           4.0878002491         111.2346998415      PH        B2 (3)
   92   108           4.0878002491         111.2346998415      PH        B1 (2)
   93   202           4.1860020281         113.9069061009      DE        A2 (4)
   94    38           4.1860020281         113.9069061009      DE        A1 (1)
   95   109           4.2015469739         114.3299055804      PH        B1 (2)
   96   161           4.2015469739         114.3299055804      PH        B2 (3)
   97   110           4.2016905163         114.3338115677      PI        B1 (2)
   98   162           4.2016905163         114.3338115677      PI        B2 (3)
   99    39           4.2463151918         115.5481107203     SG+        A1 (1)
  100    40           4.3463204134         118.2693911491      DE        A1 (1)
  101   203           4.3463204134         118.2693911491      DE        A2 (4)
  102    41           4.4263699926         120.4476509376     SG+        A1 (1)
  103   163           4.8145732106         131.0111975416      PI        B2 (3)
  104   111           4.8145732106         131.0111975416      PI        B1 (2)
  105   112           5.0007875169         136.0783464235      PI        B1 (2)
  106   164           5.0007875169         136.0783464235      PI        B2 (3)
  107    42           5.0901104596         138.5089472654      DE        A1 (1)
  108   204           5.0901104596         138.5089472655      DE        A2 (4)
  109    43           5.1270239579         139.5134146205     SG+        A1 (1)
  110    44           5.5596286841         151.2851876849     SG+        A1 (1)
  111   165           5.7194329329         155.6336823676      PI        B2 (3)
  112   113           5.7194329329         155.6336823676      PI        B1 (2)
  113    45           5.8882794504         160.2282296903      PI        A1 (1)
  114   205           5.8882794504         160.2282296903      PI        A2 (4)
  115   166           6.0633121455         164.9911114646      PH        B2 (3)
  116   114           6.0633121455         164.9911114646      PH        B1 (2)
  117    46           6.2370108598         169.7176937759     SG+        A1 (1)
  118    47           6.2747670757         170.7450926417      DE        A1 (1)
  119   206           6.2747670757         170.7450926417      DE        A2 (4)
  120   115           6.3030221004         171.5139509519      PI        B1 (2)
  121   167           6.3030221004         171.5139509519      PI        B2 (3)
  122   168           6.4282643643         174.9219662126      PH        B2 (3)
  123   116           6.4282643643         174.9219662126      PH        B1 (2)
  124    48           6.5591184657         178.4826873374      DE        A1 (1)
  125   207           6.5591184657         178.4826873375      DE        A2 (4)
  126    49           6.8308435270         185.8767021590     SG+        A1 (1)
  127   208           7.0576671091         192.0488856143      DE        A2 (4)
  128    50           7.0576671091         192.0488856143      DE        A1 (1)
  129   169           7.3075455307         198.8484231482      PI        B2 (3)
  130   117           7.3075455307         198.8484231482      PI        B1 (2)
  131    51           7.6621659693         208.4981358663     SG+        A1 (1)
  132    52           8.1449089096         221.6342390977     SG+        A1 (1)
  133   118           8.2328774996         224.0279861273      PI        B1 (2)
  134   170           8.2328774996         224.0279861273      PI        B2 (3)
  135   171          10.1130648886         275.1904860317      PI        B2 (3)
  136   119          10.1130648886         275.1904860317      PI        B1 (2)
  137    53          10.4937705529         285.5500138276     SG+        A1 (1)
  138   209          10.6068352753         288.6266613359      PI        A2 (4)
  139    54          10.6068352753         288.6266613359      PI        A1 (1)
  140   172          10.8335681106         294.7963754478      PH        B2 (3)
  141   120          10.8335681106         294.7963754478      PH        B1 (2)
  142    55          11.0135688255         299.6944439131     SG+        A1 (1)
  143    56          11.0721884054         301.2895637769      DE        A1 (1)
  144   210          11.0721884054         301.2895637769      DE        A2 (4)
  145   121          11.3106922601         307.7795836090      PI        B1 (2)
  146   173          11.3106922601         307.7795836090      PI        B2 (3)
  147    57          11.4882721607         312.6117783678     SG+        A1 (1)
  148   122          11.8559659101         322.6172339579      PH        B1 (2)
  149   174          11.8559659101         322.6172339579      PH        B2 (3)
  150    58          12.2106350975         332.2682731944      DE        A1 (1)
  151   211          12.2106350975         332.2682731945      DE        A2 (4)
  152   175          12.5679227984         341.9905658083      PI        B2 (3)
  153   123          12.5679227984         341.9905658083      PI        B1 (2)
  154    59          12.8294880314         349.1081176486      DE        A1 (1)
  155   212          12.8294880314         349.1081176487      DE        A2 (4)
  156    60          13.0750480582         355.7901456838     SG+        A1 (1)
  157   124          13.7553966397         374.3033717827      PI        B1 (2)
  158   176          13.7553966397         374.3033717828      PI        B2 (3)
  159    61          15.0495790348         409.5198651247     SG+        A1 (1)
  160    62          17.9276704462         487.8367139803     SG+        A1 (1)
  161   125          19.2438001655         523.6504243772      PI        B1 (2)
  162   177          19.2438001655         523.6504243773      PI        B2 (3)
  163    63          20.5366776743         558.8314099587     SG+        A1 (1)
  164    64          26.4604870475         720.0264580000      DE        A1 (1)
  165   213          26.4604870475         720.0264580000      DE        A2 (4)
  166   126          26.8958649530         731.8736931107      PI        B1 (2)
  167   178          26.8958649530         731.8736931107      PI        B2 (3)
  168    65          27.8637337267         758.2107413924     SG+        A1 (1)
  169   179          33.7641775858         918.7699814738      PI        B2 (3)
  170   127          33.7641775858         918.7699814742      PI        B1 (2)
  171    66          34.8027318648         947.0304801406     SG+        A1 (1)
  172    67          36.5053591237         993.3613232694     SG+        A1 (1)
  173   214          47.1039028365        1281.7623597208      DE        A2 (4)
  174    68          47.1039028365        1281.7623597208      DE        A1 (1)
  175   128          47.5156972147        1292.9678544289      PI        B1 (2)
  176   180          47.5156972148        1292.9678544289      PI        B2 (3)
  177    69          48.3385110823        1315.3577580461     SG+        A1 (1)
  178    70          64.1154397736        1744.6698135389     SG+        A1 (1)
  179   129          66.7168531372        1815.4578699567      PI        B1 (2)
  180   181          66.7168531372        1815.4578699568      PI        B2 (3)
  181    71          67.7137698130        1842.5853518408     SG+        A1 (1)
  182   130          98.6378823514        2684.0732344279      PH        B1 (2)
  183   182          98.6378823514        2684.0732344279      PH        B2 (3)
  184    72          98.6554114623        2684.5502257847      DE        A1 (1)
  185   215          98.6554114623        2684.5502257847      DE        A2 (4)
  186   183          98.7073096328        2685.9624468018      PI        B2 (3)
  187   131          98.7073096328        2685.9624468018      PI        B1 (2)
  188    73          98.7242647511        2686.4238190243     SG+        A1 (1)
  189   132         103.2825273771        2810.4604509794      PH        B1 (2)
  190   184         103.2825273771        2810.4604509794      PH        B2 (3)
  191    74         103.3219330131        2811.5327328483      DE        A1 (1)
  192   216         103.3219330132        2811.5327328500      DE        A2 (4)
  193   185         103.3543745494        2812.4155119311      PI        B2 (3)
  194   133         103.3543745494        2812.4155119311      PI        B1 (2)
  195    75         103.3925879292        2813.4553508593     SG+        A1 (1)
  196   217         115.1299511665        3132.8452420160      DE        A2 (4)
  197    76         115.1299511665        3132.8452420160      DE        A1 (1)
  198   186         115.3429122917        3138.6402088417      PI        B2 (3)
  199   134         115.3429122917        3138.6402088417      PI        B1 (2)
  200    77         115.8285883206        3151.8561254715     SG+        A1 (1)
  201   187         117.0182235108        3184.2277447393      PI        B2 (3)
  202   135         117.0182235108        3184.2277447398      PI        B1 (2)
  203    78         117.8341009947        3206.4288997616     SG+        A1 (1)
  204    79         122.7099355134        3339.1071022453     SG+        A1 (1)
  205   218         198.5662278963        5403.2617575777      DE        A2 (4)
  206    80         198.5662278963        5403.2617575778      DE        A1 (1)
  207   136         198.7870543764        5409.2707515919      PI        B1 (2)
  208   188         198.7870543764        5409.2707515923      PI        B2 (3)
  209    81         199.2001752105        5420.5123410013     SG+        A1 (1)
  210    82         216.6023695739        5894.0501238247     SG+        A1 (1)
  211   137         225.1437958729        6126.4741496282      PI        B1 (2)
  212   189         225.1437958729        6126.4741496282      PI        B2 (3)
  213    83         225.9578166836        6148.6247820048     SG+        A1 (1)
  214   190         395.4765510998       10761.4640576876      PI        B2 (3)
  215   138         395.4765510999       10761.4640576882      PI        B1 (2)
  216    84         396.1491499659       10779.7664033070     SG+        A1 (1)
  217    85         509.2843974884       13858.3329996953     SG+        A1 (1)
  218    86         895.4303815734       24365.8994210008     SG+        A1 (1)


  VSCF finished.

 @CHECKOUT-I, Total execution time (CPU/WALL):       52.80/      13.55 seconds.
--executable xvscf finished with status     0 in       13.58 seconds (walltime).
 --invoking executable--
/nfs/workspaces/public/cfour_mpi/bin/xvtran
 @GETMEM-I,  Allocated    3814 MB of main memory.
  Full RHF integral transformation
  Transformation of IIII integrals :
  1 pass through the AO integral file was required.
     4561068 AO integrals were read.
     8789871 MO integrals were written to HF2.
  Transformation of IIJJ integrals :
  1 pass through the AO integral file was required.
    10326499 AO integrals were read.
    14600387 MO integrals were written to HF2.
  Transformation of IJIJ integrals :
  1 pass through the AO integral file was required.
    19597705 AO integrals were read.
    27436010 MO integrals were written to HF2.
  Transformation of IJKL integrals :
  1 pass through the AO integral file was required.
    14500668 AO integrals were read.
    18549615 MO integrals were written to HF2.
  Summary of active molecular orbitals: 
------------------------------------------------------------------------
 
  Index      Eigenvalue    Symmetry    Index      Eigenvalue    Symmetry
------------------------------------------------------------------------
     1       -20.6669797        1       110         4.2015470        2
     2       -11.3967079        1       111         4.2016905        2
     3        -1.4669282        1       112         4.8145732        2
     4        -0.7981805        1       113         5.0007875        2
     5        -0.5628531        1       114         5.7194329        2
     6        -0.6067488        2       115         6.0633121        2
     7        -0.6067488        3       116         6.3030221        2
     8         0.0618715        1       117         6.4282644        2
     9         0.0720603        1       118         7.3075455        2
    10         0.1568857        1       119         8.2328775        2
    11         0.2272233        1       120        10.1130649        2
    12         0.2284090        1       121        10.8335681        2
    13         0.3001876        1       122        11.3106923        2
    14         0.3875890        1       123        11.8559659        2
    15         0.5091264        1       124        12.5679228        2
    16         0.5395576        1       125        13.7553966        2
    17         0.6138491        1       126        19.2438002        2
    18         0.7645232        1       127        26.8958650        2
    19         0.7769152        1       128        33.7641776        2
    20         0.8581806        1       129        47.5156972        2
    21         0.8753894        1       130        66.7168531        2
    22         0.8859084        1       131        98.6378824        2
    23         1.1484717        1       132        98.7073096        2
    24         1.4454903        1       133       103.2825274        2
    25         1.5312643        1       134       103.3543745        2
    26         1.6654245        1       135       115.3429123        2
    27         1.7568839        1       136       117.0182235        2
    28         1.8006860        1       137       198.7870544        2
    29         2.0872056        1       138       225.1437959        2
    30         2.0996101        1       139       395.4765511        2
    31         2.1798648        1       140         0.0584029        3
    32         2.3080429        1       141         0.1204831        3
    33         2.3506761        1       142         0.1669457        3
    34         2.4812300        1       143         0.3120375        3
    35         2.8280168        1       144         0.3952340        3
    36         2.9391554        1       145         0.6253828        3
    37         3.4749615        1       146         0.7465969        3
    38         3.7114203        1       147         0.8130539        3
    39         3.9181131        1       148         0.8875153        3
    40         4.1860020        1       149         1.0590340        3
    41         4.2463152        1       150         1.4415917        3
    42         4.3463204        1       151         1.5651268        3
    43         4.4263700        1       152         1.7433782        3
    44         5.0901105        1       153         2.0075654        3
    45         5.1270240        1       154         2.2443986        3
    46         5.5596287        1       155         2.3073233        3
    47         5.8882795        1       156         2.3331181        3
    48         6.2370109        1       157         2.5771427        3
    49         6.2747671        1       158         2.7624475        3
    50         6.5591185        1       159         3.7149123        3
    51         6.8308435        1       160         4.0878002        3
    52         7.0576671        1       161         4.2015470        3
    53         7.6621660        1       162         4.2016905        3
    54         8.1449089        1       163         4.8145732        3
    55        10.4937706        1       164         5.0007875        3
    56        10.6068353        1       165         5.7194329        3
    57        11.0135688        1       166         6.0633121        3
    58        11.0721884        1       167         6.3030221        3
    59        11.4882722        1       168         6.4282644        3
    60        12.2106351        1       169         7.3075455        3
    61        12.8294880        1       170         8.2328775        3
    62        13.0750481        1       171        10.1130649        3
    63        15.0495790        1       172        10.8335681        3
    64        17.9276704        1       173        11.3106923        3
    65        20.5366777        1       174        11.8559659        3
    66        26.4604870        1       175        12.5679228        3
    67        27.8637337        1       176        13.7553966        3
    68        34.8027319        1       177        19.2438002        3
    69        36.5053591        1       178        26.8958650        3
    70        47.1039028        1       179        33.7641776        3
    71        48.3385111        1       180        47.5156972        3
    72        64.1154398        1       181        66.7168531        3
    73        67.7137698        1       182        98.6378824        3
    74        98.6554115        1       183        98.7073096        3
    75        98.7242648        1       184       103.2825274        3
    76       103.3219330        1       185       103.3543745        3
    77       103.3925879        1       186       115.3429123        3
    78       115.1299512        1       187       117.0182235        3
    79       115.8285883        1       188       198.7870544        3
    80       117.8341010        1       189       225.1437959        3
    81       122.7099355        1       190       395.4765511        3
    82       198.5662279        1       191         0.2272233        4
    83       199.2001752        1       192         0.5395576        4
    84       216.6023696        1       193         0.7645232        4
    85       225.9578167        1       194         0.8859084        4
    86       396.1491500        1       195         1.5312643        4
    87       509.2843975        1       196         1.7568839        4
    88       895.4303816        1       197         2.0996101        4
    89         0.0584029        2       198         2.1798648        4
    90         0.1204831        2       199         2.3506761        4
    91         0.1669457        2       200         2.9391554        4
    92         0.3120375        2       201         3.7114203        4
    93         0.3952340        2       202         4.1860020        4
    94         0.6253828        2       203         4.3463204        4
    95         0.7465969        2       204         5.0901105        4
    96         0.8130539        2       205         5.8882795        4
    97         0.8875153        2       206         6.2747671        4
    98         1.0590340        2       207         6.5591185        4
    99         1.4415917        2       208         7.0576671        4
   100         1.5651268        2       209        10.6068353        4
   101         1.7433782        2       210        11.0721884        4
   102         2.0075654        2       211        12.2106351        4
   103         2.2443986        2       212        12.8294880        4
   104         2.3073233        2       213        26.4604870        4
   105         2.3331181        2       214        47.1039028        4
   106         2.5771427        2       215        98.6554115        4
   107         2.7624475        2       216       103.3219330        4
   108         3.7149123        2       217       115.1299512        4
   109         4.0878002        2       218       198.5662279        4
------------------------------------------------------------------------
  -20.6669797271697       -11.3967079030981       -1.46692815431835     
 -0.798180510068102      -0.562853084169750      -0.606748767155820     
 -0.606748767155801       6.187149154808589E-002  7.206033887619560E-002
  0.156885731921763       0.227223280477841       0.228409047041575     
  0.300187567437911       0.387589027612767       0.509126430697260     
  0.539557618916761       0.613849066092325       0.764523205401870     
  0.776915244077756       0.858180632450599       0.875389413962250     
  0.885908431856291        1.14847173320202        1.44549030199222     
   1.53126428076449        1.66542452228657        1.75688385382633     
   1.80068597301270        2.08720558849345        2.09961011955675     
   2.17986479662364        2.30804285858283        2.35067608875273     
   2.48123001122581        2.82801681468529        2.93915541979881     
   3.47496145174539        3.71142026876529        3.91811309561702     
   4.18600202814074        4.24631519176277        4.34632041342852     
   4.42636999255405        5.09011045963241        5.12702395794210     
   5.55962868410889        5.88827945036687        6.23701085979810     
   6.27476707566891        6.55911846574398        6.83084352701537     
   7.05766710906392        7.66216596934686        8.14490890962011     
   10.4937705529376        10.6068352752658        11.0135688255062     
   11.0721884054192        11.4882721606789        12.2106350974564     
[...]
 Convergence information after     9 iterations: 
 Largest element of residual vector : -0.14182870E-04.
 Largest element of DIIS residual   : -0.67108563E-05.
 Convergence information after    10 iterations: 
 Largest element of residual vector : -0.73726178E-05.
 Largest element of DIIS residual   : -0.52165469E-05.
 Convergence information after    11 iterations: 
 Largest element of residual vector : -0.33364398E-05.
 Largest element of DIIS residual   : -0.99428230E-06.
 Convergence information after    12 iterations: 
 Largest element of residual vector : -0.14757329E-05.
 Largest element of DIIS residual   :  0.55722551E-06.
 Convergence information after    13 iterations: 
 Largest element of residual vector :  0.45696512E-06.
 Largest element of DIIS residual   :  0.17954966E-06.
 Convergence information after    14 iterations: 
 Largest element of residual vector :  0.18604620E-06.
 Largest element of DIIS residual   :  0.81230709E-07.
 Perturbed amplitude equations converged in    14 iterations.
  Dominant contributions to perturbed wavefunction:
    7    7  141   28   0.2398181762 ABAB
    7    7   28  141   0.2398181762 ABAB
    7    7  141   37  -0.1887239623 ABAB
    7    7   37  141  -0.1887239623 ABAB
    7    7  141   39   0.1715198784 ABAB
    7    7   39  141   0.1715198784 ABAB
    7    7  140   28   0.1578645485 ABAB
    7    7   28  140   0.1578645485 ABAB
    7    6   28   90   0.1556927580 ABAB
    6    7   90   28   0.1556927580 ABAB
    7    7  141   45   0.1407413063 ABAB
    7    7   45  141   0.1407413063 ABAB
    7    7  141   53  -0.1318748309 ABAB
    7    7   53  141  -0.1318748309 ABAB
    7    0   45    0  -0.1308927016 AA  
    7    7  141   55   0.1283574375 ABAB
    7    7   55  141   0.1283574375 ABAB
    7    7  141   20   0.1282531644 ABAB
    7    7   20  141   0.1282531644 ABAB
    7    7  141   19  -0.1229246882 ABAB
  norm of converged amps    2.24718194227936     
 Starting iterative solution of the perturbed Lambda equations.
 The DIIS procedure is used to accelerate convergence.
 Convergence criterion is 10**(-7).
 Maximum number of iterations is 100.
 Convergence information after     1 iterations: 
 Largest element of residual vector :  0.62704288E-01.
 Largest element of DIIS residual   :  0.62704288E-01.
 Convergence information after     2 iterations: 
 Largest element of residual vector : -0.92097251E-02.
 Largest element of DIIS residual   : -0.56506104E-02.
 Convergence information after     3 iterations: 
 Largest element of residual vector : -0.50014049E-02.
 Largest element of DIIS residual   : -0.43952211E-02.
 Convergence information after     4 iterations: 
 Largest element of residual vector : -0.30997099E-02.
 Largest element of DIIS residual   : -0.25185450E-02.
 Convergence information after     5 iterations: 
 Largest element of residual vector : -0.19448456E-02.
 Largest element of DIIS residual   : -0.96888678E-03.
 Convergence information after     6 iterations: 
 Largest element of residual vector : -0.66397168E-03.
 Largest element of DIIS residual   : -0.18250796E-03.
 Convergence information after     7 iterations: 
 Largest element of residual vector : -0.16134073E-03.
 Largest element of DIIS residual   :  0.65927781E-04.
 Convergence information after     8 iterations: 
 Largest element of residual vector :  0.39877167E-04.
 Largest element of DIIS residual   : -0.26452944E-04.
 Convergence information after     9 iterations: 
 Largest element of residual vector : -0.10360960E-04.
 Largest element of DIIS residual   : -0.64568964E-05.
 Convergence information after    10 iterations: 
 Largest element of residual vector : -0.56149833E-05.
 Largest element of DIIS residual   : -0.44620984E-05.
 Convergence information after    11 iterations: 
 Largest element of residual vector : -0.24822435E-05.
 Largest element of DIIS residual   : -0.95147855E-06.
 Convergence information after    12 iterations: 
 Largest element of residual vector : -0.12821169E-05.
 Largest element of DIIS residual   :  0.83534738E-06.
 Convergence information after    13 iterations: 
 Largest element of residual vector :  0.63742275E-06.
 Largest element of DIIS residual   :  0.38941180E-06.
 Convergence information after    14 iterations: 
 Largest element of residual vector :  0.34785716E-06.
 Largest element of DIIS residual   :  0.17119066E-06.
 Convergence information after    15 iterations: 
 Largest element of residual vector :  0.11346837E-06.
 Largest element of DIIS residual   :  0.53294773E-07.
 Perturbed Lambda equations converged in    15 iterations.
  Dominant contributions to perturbed wavefunction:
    7    7  141   28   0.2237411265 ABAB
    7    7   28  141   0.2237411265 ABAB
    7    7  141   37  -0.1775100258 ABAB
    7    7   37  141  -0.1775100258 ABAB
    7    7  141   39   0.1584224494 ABAB
    7    7   39  141   0.1584224494 ABAB
    7    7  140   28   0.1481766777 ABAB
    7    7   28  140   0.1481766777 ABAB
    7    6   28   90   0.1430398351 ABAB
    6    7   90   28   0.1430398351 ABAB
    7    7  141   45   0.1274809085 ABAB
    7    7   45  141   0.1274809085 ABAB
    7    7  141   53  -0.1217625159 ABAB
    7    7   53  141  -0.1217625159 ABAB
    7    7  141   55   0.1181598027 ABAB
    7    7   55  141   0.1181598027 ABAB
    7    7  141   20   0.1175198644 ABAB
    7    7   20  141   0.1175198644 ABAB
    5    5  141   45   0.1168262271 ABAB
    5    5   45  141   0.1168262271 ABAB
        The DBOC first-order density matrix is being calculated 
             (Symmetry block 3, perturbation   2)
 term   5.84519063888942     
 final tnorm  0.876589682186948     
  norm contr. I: |<0|L dT/dx|0>|^2   0.000000000000000E+000
  norm contr. II: <0|[nabla(1+L)e-T][nabla e^T]|0>   5.84519063888942     
  total norm contribution   5.84519063888942     
 oo  9.195349270036879E-003
 vv  -38.9817933151298     
 vo  4.518409630776724E-002
  Correlated perturbed 1-el contribution to DBOC  -38.9274138695520       cm**-1
  SUM_I |dc_I/dx|^2 contribution to DBOC   19.5544935232979       cm**-1
 
 
  The total diagonal Born-Oppenheimer correction (DBOC) is:      0.0038684203 a.u.
  The total diagonal Born-Oppenheimer correction (DBOC) is:        849.020125 cm-1
 
 Total CC energy including DBOC  -113.267092985846     
 First-order density matrix is being calculated  (Symmetry block 3, perturbation   2)
 Calculation of the contributions of <pq||rs> to dI(i,j)/dx required   2.8 seconds.
 Calculation of the contributions of <pq||rs> to dI(a,b)/dx required  15.2 seconds.
 Calculation of the contributions of <pq||rs> to dI(i,a)/dx required   9.0 seconds.
 First-order Z-vector equations are solved for 1 perturbation.
 Convergence reached after  18 iterations.
        U*G(pq,rs) contribution is being calculated
             (Symmetry block 3, perturbation   2)

 CCSD contribution to force constants 

        0.0000000000        0.0000000000        0.0000000000
        0.0000000000        0.0000000000        0.0000000000
        0.0000000000        0.0000000000        0.0000000000
        0.0000000000        0.0000000000        0.0000000000
        0.0000000000        0.0000000000        0.0000000000
        0.0000000000        0.0000000000        0.0000000000
        0.0000000000        0.0000000000        0.0000000000
        0.0000000000        0.0000000000        0.0000000000
        0.0000000000        0.0000000000        0.0000000000
        0.0000000000        0.0000000000        0.0000000000
        0.0000000000        0.0000000000        0.0000000000
        0.0000000000        0.9057694870       -0.9057694870

 CCSD contribution to dipole derivatives 

        0.0000000000        0.0000000000        0.0000000000
        0.0000000000        0.0000000000        0.0000000000
        0.0000000000        0.0000000000        0.0000000000
        0.0000000000        0.0000000000       -0.0479371616
        0.0000000000        0.0000000000        0.0000000000
        0.0000000000        0.0000000000        0.0000000000
 @CHECKOUT-I, Total execution time (CPU/WALL):     1169.35/     476.47 seconds.
--executable xsdcc finished with status     0 in      476.73 seconds (walltime).
 --invoking executable--
/nfs/workspaces/public/cfour_mpi/bin/xanti
 @GETMEM-I,  Allocated    3814 MB of main memory.
 CCSD MO derivative gammas will be sorted to Mulliken order.
 @CHECKOUT-I, Total execution time (CPU/WALL):       12.91/      24.78 seconds.
--executable xanti finished with status     0 in       24.95 seconds (walltime).
 --invoking executable--
/nfs/workspaces/public/cfour_mpi/bin/xbcktrn
 @GETMEM-I,  Allocated    3814 MB of main memory.
 CCSD MO derivative gammas will be transformed to the AO basis.
 @CHECKOUT-I, Total execution time (CPU/WALL):       28.33/      18.22 seconds.
--executable xbcktrn finished with status     0 in       18.29 seconds (walltime).
 --invoking executable--
/nfs/workspaces/public/cfour_mpi/bin/xvdint
 @GETMEM-I,  Allocated    3814 MB of main memory.
 One- and two-electron integral derivatives are calculated
 for RHF-CC/MBPT hessians and dipole derivatives.
 Spherical gaussians are used.
  magnet F F
                    8722  records have been written to the Sort file.
  Total length of Sort file :             178609116  words.
 Evaluation of 2el integral derivatives

                      Two-electron integral gradient
                      ------------------------------

                         C #1 z     0.0000000000
                         O #2 z     0.0000000000


 C #1       0.0000000000           -0.3903225706            0.0000000000
 O #2       0.0000000000            0.3903225706            0.0000000000


 Evaluation of 2e integral derivatives required  368.06 seconds.
  contribution to Hessian
        0.0000000000        0.0000000000        0.0000000000
        0.0000000000       -0.3903225706        0.3903225706
 @CHECKOUT-I, Total execution time (CPU/WALL):      368.03/      73.46 seconds.
--executable xvdint finished with status     0 in       73.63 seconds (walltime).
 --invoking executable--
/nfs/workspaces/public/cfour_mpi/bin/xanti
 @GETMEM-I,  Allocated    3814 MB of main memory.
 CCSD MO gammas will be sorted to Mulliken order.
 @CHECKOUT-I, Total execution time (CPU/WALL):       15.85/      53.54 seconds.
--executable xanti finished with status     0 in       53.69 seconds (walltime).
 --invoking executable--
/nfs/workspaces/public/cfour_mpi/bin/xbcktrn
 @GETMEM-I,  Allocated    3814 MB of main memory.
 CCSD MO gammas will be transformed to the AO basis.
 @CHECKOUT-I, Total execution time (CPU/WALL):       64.60/      20.09 seconds.
--executable xbcktrn finished with status     0 in       20.16 seconds (walltime).
 --invoking executable--
/nfs/workspaces/public/cfour_mpi/bin/xvdint
 @GETMEM-I,  Allocated    3814 MB of main memory.
 One- and two-electron integral derivatives are calculated
 for RHF-CC/MBPT hessians and dipole derivatives.
 Spherical gaussians are used.
  magnet F F

                     Kinetic energy integral gradient
                     --------------------------------

                         C #1 z    -1.2640463712
                         O #2 z     1.2640463712


 C #1       0.0000000000            0.0000000000           -1.2640463712
 O #2       0.0000000000            0.0000000000            1.2640463712



                   Nuclear attraction integral gradient
                   ------------------------------------

                         C #1 z    21.5104998759
                         O #2 z   -21.5104998759


 C #1       0.0000000000            0.0000000000           21.5104998759
 O #2       0.0000000000            0.0000000000          -21.5104998759



                      Reorthonormalization gradient
                      -----------------------------

                         C #1 z     0.0000000000
                         O #2 z     0.0000000000


 C #1       0.0000000000            0.0000000000            0.0000000000
 O #2       0.0000000000            0.0000000000            0.0000000000



                     Kinetic energy integral Hessian
                     -------------------------------


           Symmetry 1

           C #1 z      O #2 z

 C #1 z    1.070382
 O #2 z   -1.070382    1.070382


           Symmetry 2

           C #1 x      O #2 x

 C #1 x   -1.492987
 O #2 x    1.492987   -1.492987


           Symmetry 3

           C #1 y      O #2 y

 C #1 y   -1.492987
 O #2 y    1.492987   -1.492987




           C #1 x      C #1 y      C #1 z      O #2 x      O #2 y      O #2 z

 C #1 x   -1.492987
 C #1 y    0.000000   -1.492987
 C #1 z    0.000000    0.000000    1.070382

 O #2 x    1.492987    0.000000    0.000000   -1.492987
 O #2 y    0.000000    1.492987    0.000000    0.000000   -1.492987
 O #2 z    0.000000    0.000000   -1.070382    0.000000    0.000000    1.070382




                   Nuclear attraction integral Hessian
                   -----------------------------------


           Symmetry 1

           C #1 z      O #2 z

 C #1 z  -12.764870
 O #2 z   12.764870  -12.764870


           Symmetry 2

           C #1 x      O #2 x

 C #1 x   17.324021
 O #2 x  -17.324021   17.324021


           Symmetry 3

           C #1 y      O #2 y

 C #1 y   17.324021
 O #2 y  -17.324021   17.324021




           C #1 x      C #1 y      C #1 z      O #2 x      O #2 y      O #2 z

 C #1 x   17.324021
 C #1 y    0.000000   17.324021
 C #1 z    0.000000    0.000000  -12.764870

 O #2 x  -17.324021    0.000000    0.000000   17.324021
 O #2 y    0.000000  -17.324021    0.000000    0.000000   17.324021
 O #2 z    0.000000    0.000000   12.764870    0.000000    0.000000  -12.764870




                Highest order reorthonormalization Hessian
                ------------------------------------------


           Symmetry 1

           C #1 z      O #2 z

 C #1 z    0.000000
 O #2 z    0.000000    0.000000


           Symmetry 2

           C #1 x      O #2 x

 C #1 x    0.000000
 O #2 x    0.000000    0.000000


           Symmetry 3

           C #1 y      O #2 y

 C #1 y    0.000000
 O #2 y    0.000000    0.000000




           C #1 x      C #1 y      C #1 z      O #2 x      O #2 y      O #2 z




                Electronic contributions to dipole moment
                -----------------------------------------

                               au             Debye

                    z     -0.86374787     -2.19542848

  Conversion factor used: 1 a.u. =   2.54174691 Debye 



   Electronic contributions to static part of dipole moment derivatives
   --------------------------------------------------------------------


                     Total dipole moment derivatives
                     -------------------------------


           Symmetry 1
                              Ez

               C #1 z    -5.67265405
               O #2 z    -8.32734595

           Symmetry 2
                              Ex

               C #1 x    -5.74994561
               O #2 x    -8.25005439

           Symmetry 3
                              Ey

               C #1 y    -5.74994561
               O #2 y    -8.25005439



                       Ex          Ey          Ez

      C #1    x   -5.749946    0.000000    0.000000
      C #1    y    0.000000   -5.749946    0.000000
      C #1    z    0.000000    0.000000   -5.672654

      O #2    x   -8.250054    0.000000    0.000000
      O #2    y    0.000000   -8.250054    0.000000
      O #2    z    0.000000    0.000000   -8.327346

 Evaluation of 1e integral derivatives required    1.73 seconds.
                    8815  records have been written to the Sort file.
  Total length of Sort file :             180513570  words.
 Evaluation of 2el integral derivatives

                      Two-electron integral gradient
                      ------------------------------

                         C #1 z   -10.4655295685
                         O #2 z    10.4655295685


 C #1       0.0000000000            0.0000000000          -10.4655295685
 O #2       0.0000000000            0.0000000000           10.4655295685


 Evaluation of 2e integral derivatives required  731.15 seconds.

                            Molecular gradient
                            ------------------

                         C #1 z     0.6055222926
                         O #2 z    -0.6055222926


 C #1       0.0000000000            0.0000000000            0.6055222926
 O #2       0.0000000000            0.0000000000           -0.6055222926


  Molecular gradient norm 0.856E+00

                            Molecular hessian
                            -----------------


           Symmetry 1

           C #1 z      O #2 z

 C #1 z   52.946365
 O #2 z  -52.946365   52.946365


           Symmetry 2

           C #1 x      O #2 x

 C #1 x   -0.280564
 O #2 x    0.280564   -0.280564


           Symmetry 3

           C #1 y      O #2 y

 C #1 y   -0.280564
 O #2 y    0.280564   -0.280564




           C #1 x      C #1 y      C #1 z      O #2 x      O #2 y      O #2 z

 C #1 x   -0.280564
 C #1 y    0.000000   -0.280564
 C #1 z    0.000000    0.000000   52.946365

 O #2 x    0.280564    0.000000    0.000000   -0.280564
 O #2 y    0.000000    0.280564    0.000000    0.000000   -0.280564
 O #2 z    0.000000    0.000000  -52.946365    0.000000    0.000000   52.946365




                           Total dipole moment
                           -------------------

                               au             Debye

                    z      0.05078190      0.12907474

  Conversion factor used: 1 a.u. =   2.54174691 Debye 



                     Total dipole moment derivatives
                     -------------------------------


           Symmetry 1
                              Ez

               C #1 z     0.71432736
               O #2 z    -0.71432736

           Symmetry 2
                              Ex

               C #1 x     0.02211384
               O #2 x    -0.02211384

           Symmetry 3
                              Ey

               C #1 y     0.02211384
               O #2 y    -0.02211384



                       Ex          Ey          Ez

      C #1    x    0.022114    0.000000    0.000000
      C #1    y    0.000000    0.022114    0.000000
      C #1    z    0.000000    0.000000    0.714327

      O #2    x   -0.022114    0.000000    0.000000
      O #2    y    0.000000   -0.022114    0.000000
      O #2    z    0.000000    0.000000   -0.714327

 @CHECKOUT-I, Total execution time (CPU/WALL):      732.87/     122.87 seconds.
--executable xvdint finished with status     0 in      123.05 seconds (walltime).
 --invoking executable--
/nfs/workspaces/public/cfour_mpi/bin/xjoda
  @GTFLGS-I, Hessian will be transformed to curvilinear coordinates.
  @GTFLGS-I, Hessian will be transformed to curvilinear coordinates.
  igrd and ihes are                      0                     1
  gradient from JOBARC 
   0.000000000000000   0.000000000000000   0.605522292591206
   0.000000000000000   0.000000000000000  -0.605522292591206
 
  @PROJFCM-I, Projecting force constant matrix onto totally symmetric subspace.
  Largest difference between matrix elements of symmetrized
  and unsymmetrized FCM :     0.4053618552E-10.
  read isotopes from ZMAT file 
 
  Summary of diagonal Born-Oppenheimer correction at the correlated level
  The total diagonal Born-Oppenheimer correction (DBOC) is:      0.0038684203 a.u.
  The total diagonal Born-Oppenheimer correction (DBOC) is:        849.020125 cm-1
  The total diagonal Born-Oppenheimer correction (DBOC) is:            10.157 kJ/mole
  hellooooooo 
  readis is  F
 
 @CHECKOUT-I, Total execution time (CPU/WALL):        0.01/       0.05 seconds.
--executable xjoda finished with status     0 in        0.10 seconds (walltime).
  The final electronic energy is      -113.267092985845579 a.u. 
  This computation required                         4403.53 seconds (walltime).
