 --invoking executable--
/nfs/workspaces/public/cfour_mpi/bin/xjoda


   *************************************************************************
         <<<     CCCCCC     CCCCCC   |||     CCCCCC     CCCCCC   >>>
       <<<      CCC        CCC       |||    CCC        CCC         >>>
      <<<      CCC        CCC        |||   CCC        CCC            >>>
    <<<        CCC        CCC        |||   CCC        CCC              >>>
      <<<      CCC        CCC        |||   CCC        CCC            >>>
       <<<      CCC        CCC       |||    CCC        CCC         >>>
         <<<     CCCCCC     CCCCCC   |||     CCCCCC     CCCCCC   >>>
   *************************************************************************

     ****************************************************************
     * CFOUR Coupled-Cluster techniques for Computational Chemistry *
     ****************************************************************
 

   Department of Chemistry                Institut fuer Physikalische Chemie
   University of Florida                  Universitaet Mainz
   Gainesville, FL 32611, USA             D-55099 Mainz, Germany

   Department of Chemistry                Fakultaet fuer Chemie und Biowiss.
   Johns Hopkins University               Karlsruher Institut fuer Technologie
   Baltimore, MD 21218, USA               D-76131 Karlsruhe, Germany

   Department of Chemistry                Department of Physical Chemistry
   Southern Methodist University          Eotvos Lorand University
   Dallas, TX 75275, USA                  H-1053 Budapest, Hungary

 
                       Version 2.1
 
                     vincent.theory.phys.ucl.ac.uk                     
                     Sun  2 Mar 21:13:12 GMT 2025                      
                     integer*8 version is running
 
********************************************************************************
*                          Input from ZMAT file                                *
********************************************************************************
Carbon Monoxide DBOC calculation                                                
C                                                                               
O 1 r                                                                           
                                                                                
r=1.4275862068965517                                                            
                                                                                
                                                                                
*CFOUR(CALC=CCSD,BASIS=AUG-PCVQZ,SCF_CONV=10                                    
CC_CONV=14,DBOC=ON,MEMORY=500000000                                             
ZFIELD=-200)                                                                    
                                                                                
%isotopes                                                                       
12                                                                              
18                                                                              
********************************************************************************
  @GTFLGS-I, Hessian will be transformed to curvilinear coordinates.
    -------------------------------------------------------------------
                    CFOUR Control Parameters 
    -------------------------------------------------------------------
        External           Internal           Value            Units
          Name               Name
    -------------------------------------------------------------------
       ABCDTYPE             IABCDT         STANDARD    [  0]    ***   
       ANHARMONIC           IANHAR         OFF         [  0]    ***   
       ANH_ALGORIT          IANALG         STANDARD    [  0]    ***   
       ANH_DERIVAT          IANDER         SECOND      [  1]    ***   
       ANH_MODE             ANHMOD         VIBRATION   [  0]    ***   
       ANH_STEPSIZ          ICUBST             50000          x 10-6  
       ANH_SYMMETR          IANHSM         ABELIAN     [  0]    ***   
       AO_LADDERS           IAOLAD         SINGLEPASS  [  1]    ***   
       AV_SCF               IAVSCF         OFF         [  0]    ***   
       BASIS                IBASIS         AUG-PCVQZ   [ 52]    ***   
       BOTHVECTORS          BOTHVC         OFF         [  0]    ***   
       BOX_POTENT           IPIAB          OFF         [  0]    ***   
       BREIT                IBREIT         OFF         [  0]    ***   
       BRUCK_CONV           IBRTOL          10D-  4             ***   
       BRUECKNER            IBRKNR         OFF         [  0]    ***   
       BUFFERSIZE           IBUFFS              4096            ***   
       CACHE_RECS           ICHREC             10               ***   
       CALCLEVEL            ICLLVL         CCSD        [ 10]    ***   
       CCORBOPT             ICCORB         OFF         [  0]  x 0.01  
       CC_CONV              ICCCNV          10D- 14             ***   
       CC_EXPORDER          ICCEOR              5               ***   
       CC_EXTRAPOL          ICCEXT         DIIS        [  1]    ***   
       CC_GUESS             ICCGES         MP2         [  0]    ***   
       CC_MAXCYC            ICCCYC            100              cycles 
       CC_PROGRAM           ICCPRO         VCC         [  0]    ***   
       CHARGE               ICHRGE              0               ***   
       CHOLESKY             ICHOLE         OFF         [  0]    ***   
       CIS_CONV             ICISTL              5               ***   
       COMM_SIZE            IPSIZE            ***               ***   
       CONSTANT             ICONST         OLD         [  1]    ***   
       CONTINUUM            ICONTU         NONE        [  0]    ***   
       CONTRACTION          ICNTYP         GENERAL     [  1]    ***   
       COORDINATES          ICOORD         INTERNAL    [  0]    ***   
       CPHF_CONVER          ICPHFT          10D- 16             ***   
       CPHF_MAXCYC          ICPHFC             64              cycles 
       CUBIC                ICUBIC         OFF         [  0]    ***   
       CURVILINEAR          ICURVY         ON          [  1]    ***   
       DBOC                 IDBOC          ON          [  1]    ***   
       DCT                  IDCT           OFF         [  0]    ***   
       DERIV_LEV            IDRLVL         SECOND      [  2]    ***   
       DEVMEM_SIZE          IDVMEM          50000000           MByte  
       DIAG_MRCC            IEOMST          10D-  0             ***   
       DIFF_TYPE            IDIFTY         RELAXED     [  0]    ***   
       DIRECT               IDIRCT         OFF         [  0]    ***   
       DROPMO               IDRPMO      NONE         
       ECP                  IECP           OFF         [  0]    ***   
       EIGENVECTOR          IVEC                1               ***   
       EL_ANHARM            IELANH         OFF         [  0]    ***   
       EOMFOLLOW            IEOMSR         ENERGY      [  0]    ***   
       EOMIP                IEOMIP         OFF         [  0]    ***   
       EOMLEVEL             HBARFM         SAME        [  0]    ***   
       EOM_MRCC             IMRCCE         NEW         [  1]    ***   
       EOM_NONIT            EOMNON         OFF         [  0]    ***   
       EOM_NSING            IEOMSI          10D-  0             ***   
       EOM_NSTATES          IMRCCD         DAVIDSON    [  0]    ***   
       EOM_NTRIP            IEOMTR          10D-  0             ***   
       EOM_ORDER            IEXORD         ENERGY      [  0]    ***   
       EOM_PROPSTA          IEOMST              0               ***   
       ESTATE_CONV          IEXTOL          10D-  5             ***   
       ESTATE_DIAG          IEXDIG         ITERATIVE   [  0]    ***   
       ESTATE_LOCK          IESLOC         ON          [  1]    ***   
       ESTATE_MAXC          IEXMXC             40               ***   
       ESTATE_PROP          IEXPRP         OFF         [  0]    ***   
       EVAL_HESS            IRECAL              0            # of cyc.
       EXCITATION           IEXCIT              0               ***   
       EXCITE               IEXCIT         NONE        [  0]    ***   
       EXTERN_POT           IEXPOT         OFF         [  0]    ***   
       FCGRADNEW            IFCGNW         OFF         [  0]    ***   
       FC_FIELD             IFINFC              0             x 10-6  
       FD_CALTYPE           IFDCAL         GRADONLY    [  0]    ***   
       FD_PROJECT           IFDPRJ         OFF         [  1]    ***   
       FD_STEPSIZE          IDISFD              0            10-4 bohr
       FD_USEGROUP          IFDGRP         FULL        [  0]    ***   
       FILE_RECSIZ          IFLREC              4096           words  
       FINITE_PERT          IFIPER              0             x 10-6  
       FIXGEOM              IFIXGM         OFF         [  0]    ***   
       FOCK                 IFOCK          AO          [  1]    ***   
       FREQ_ALGORI          IVIALG         STANDARD    [  0]    ***   
       FROZEN_CORE          IFROCO         OFF         [  0]    ***   
       GAMMA_ABCD           IGABCD         STORE       [  0]    ***   
       GAMMA_ABCI           IGABCI         STORE       [  0]    ***   
       GENBAS_1             IGNBS1              0               ***   
       GENBAS_2             IGNBS2              0               ***   
       GENBAS_3             IGNBS3              0               ***   
       GENBAS_4             IGNBS4              0               ***   
       GEO_CONV             ICONTL              5              H/bohr 
       GEO_MAXCYC           IOPTCY             50               ***   
       GEO_MAXSTEP          IMXSTP            300            millibohr
       GEO_METHOD           INR            SINGLE_POINT[  5]    ***   
       GIAO                 IGIAO          OFF         [  1]    ***   
       GIMIC                IGIMIC         OFF         [  0]    ***   
       GRID                 IGRID          OFF         [  0]    ***   
       GRID_ALGO            IGALGO         SERIAL      [  0]    ***   
       GUESS                IGUESS         MOREAD      [  0]    ***   
       HBAR                 IHBAR          OFF         [  0]    ***   
       HESS_TYPE            IHESTP         SCF         [  0]    ***   
       HF2_FILE             IHF2Fl         USE         [  1]    ***   
       HFSTABILITY          ISTABL         OFF         [  0]    ***   
       INCORE               INCORE         OFF         [  0]    ***   
       INPUT_MRCC           IMRCC          ON          [  1]    ***   
       INTEGRALS            INTTYP         VMOL        [  1]    ***   
       JODA_PRINT           IJPRNT              0               ***   
       KEYWORD_OUT          IDMPKW         NO          [  0]    ***   
       LINDEP_TOL           ILINDP              8               ***   
       LINEQ_CONV           IZTACN          10D-  7           cycles  
       LINEQ_EXPOR          ILMAXD              5               ***   
       LINEQ_MAXCY          ILMAXC            100               ***   
       LINEQ_TYPE           ILTYPE         DIIS        [  1]    ***   
       LOCK_ORBOCC          ILOCOC         OFF         [  0]    ***   
       MEMORY_SIZE          IMEMSZ         500000000           words  
       MEM_UNIT             IMEMU          INTEGERWORDS[  0]    ***   
       MRCC                 IMRCCC         OFF         [  0]    ***   
       MULTIPLICTY          IMULTP              1               ***   
       NACOUPLING           IVCOUP         OFF         [  0]    ***   
       NEGEVAL              IDIE           ABORT       [  0]    ***   
       NEWNORM              INEWNO         OFF         [  0]    ***   
       NON-HF               INONHF         OFF         [  0]    ***   
       NTOP_TAMP            ITOPT2             15               ***   
       NUC_MODEL            INUCMO         POINT       [  0]    ***   
       OCCUPATION           IOCCU   ESTIMATED BY SCF 
       OPEN-SHELL           IOPEN          SPIN-ORBITAL[  0]    ***   
       OPTVIB               IOPTVB         OFF         [  0]    ***   
       ORBITALS             IORBTP         STANDARD    [  0]    ***   
       PARALLEL             IPARAL         ON          [  1]    ***   
       PARA_INT             IPINTS         ON          [  1]    ***   
       PARA_PRINT           IPPRIN              0               ***   
       PERT_ORB             IPTORB         STANDARD    [  0]    ***   
       POINTS               IGRDFD              0               ***   
       PRINT                IPRNT               0               ***   
       PROPS                IPROPS         OFF         [  0]    ***   
       PROP_INTEGR          IINTYP         INTERNAL    [  0]    ***   
       PSI                  IPSI           OFF         [  0]    ***   
       QC_ALG               IQCALG         FLM         [  0]    ***   
       QC_LINALG            IQCLIN         TRIDIAG     [  2]    ***   
       QC_MAXCYC            IQCMAX          10D-100           cycles  
       QC_MAXSCFCY          IQCMSC          10D- 15           cycles  
       QC_RTRUST            IQCRTR          10D-  0           x 10-3  
       QC_SKIPSCF           IQCSKI         OFF         [  0]    ***   
       QC_START             IQCSTA          10D-  1             ***   
       QRHFGUESS            IQGUES         OFF         [  0]    ***   
       QUARTIC              IQUART         OFF         [  0]    ***   
       RAMAN_INT            IRAMIN         OFF         [  0]    ***   
       RAMAN_ORB            IRAMRE         UNRELAXED   [  0]    ***   
       RDO                  IRDOFM         ON          [  1]    ***   
       REDUCE_REPR          REDREP         Ir          [  0]    ***   
       REFERENCE            IREFNC         RHF         [  0]    ***   
       RELATIVIST           IRELAT         OFF         [  0]    ***   
       RELAX_DENS           IRDENS         ON          [  1]    ***   
       RESET_FLAGS          IRESET         OFF         [  0]    ***   
       RESTART_CC           ICCRES         OFF         [  0]    ***   
       ROT_EVEC             ROTVEC              0               ***   
       SAVE_INTS            ISVINT         OFF         [  0]    ***   
       SCALE_ON             ISTCRT              0               ***   
       SCF_CONV             ISCFCV          10D- 10             ***   
       SCF_DAMPING          IDAMP               0             x 10-3  
       SCF_EXPORDE          IRPPOR              6               ***   
       SCF_EXPSTAR          IRPPLS              8               ***   
       SCF_EXTRAPO          IRPP           ON          [  1]    ***   
       SCF_MAXCYC           ISCFCY            150              cycles 
       SCF_NOSTOP           ISCFST         OFF         [  0]    ***   
       SCF_PRINT            ISCFPR              0               ***   
       SCF_PROG             ISCFPR         SCF         [  0]    ***   
       SD_FIELD             IFINSD              0             x 10-6  
       SOPERT               IPERSO         OFF         [  0]    ***   
       SPHERICAL            IDFGHI         ON          [  1]    ***   
       SPINORBIT            ISOCAL         OFF         [  0]    ***   
       SPINROTATIO          ISRCON         OFF         [  0]    ***   
       SPIN_FLIP            ISPFLP         OFF         [  0]    ***   
       SPIN_ORBIT           ISPORB         OFF         [  0]    ***   
       SPIN_SCAL            ISCSMP         OFF         [  0]    ***   
       STEEPSCALE           ISTPSC              1000          x 10-3  
       SUBGROUP             ISUBGP         DEFAULT     [  0]    ***   
       SUBGRPAXIS           ISBXYZ         X           [  0]    ***   
       SYMMETRY             ISYM           ON          [  0]    ***   
       SYM_CHECK            ISYMCK         OVERRIDE    [  1]    ***   
       T3_EXTRAPOL          IT3EXT         OFF         [  0]    ***   
       T4_EXTRAPOL          IT4EXP         OFF         [  0]    ***   
       TAMP_SUM             IEVERY              5               ***   
       TESTSUITE            ITESTS         OFF         [  0]    ***   
       THERMOCH             ITHERM         OFF         [  0]    ***   
       TOL_CHOLESK          ITOLCH          10D-  4             ***   
       TRANGRAD             IRESRM         OFF         [  0]    ***   
       TRANS_INV            ITRAIN         IGNORE      [  1]    ***   
       TREAT_PERT           ITREAT         SIMULTANEOUS[  0]    ***   
       TRIP_ALGORI          ITRALG         NORMAL      [  0]    ***   
       UIJ_THRESHO          IUIJTH              1               ***   
       UNITS                IUNITS         ANGSTROM    [  0]    ***   
       UNOS                 IUNOS          OFF         [  0]    ***   
       UPDATE_HESS          IHUPDT         ON          [  1]    ***   
       VIBPHASE             ISETPH         STANDARD    [  0]    ***   
       VIBRATION            IVIB           ANALYTIC    [  1]    ***   
       VIB_ALGORIT          IGEALG         STANDARD    [  0]    ***   
       VNATORB              IVNORB         OFF         [  0]    ***   
       VTRAN                IVTRAN         FULL/PARTIAL[  0]    ***   
       XFIELD               IXEFLD              0             x 10-6  
       XFORM_TOL            IXFTOL          10D- 11             ***   
       YFIELD               IYEFLD              0             x 10-6  
       ZFIELD               IZEFLD            ***             x 10-6  
       ZSCALE_EXP           IZEXPS         OFF         [  0]    ***   
    -------------------------------------------------------------------
   2 entries found in Z-matrix 
   Job Title : Carbon Monoxide DBOC calculation                                                
   There are  1 unique internal coordinates.
   Of these,  0 will be optimized.
   User supplied Z-matrix: 
--------------------------------------------------------------------------------
       SYMBOL    BOND      LENGTH    ANGLE     ANGLE     DIHED     ANGLE
                  TO      (ANGST)    WRT      (DEG)      WRT      (DEG)
--------------------------------------------------------------------------------
        C    
        O          1         r    
                  *Initial values for internal coordinates* 
                      Name             Value
                        r               1.4275862069
--------------------------------------------------------------------------------
  read isotopes from ZMAT file 
   Rotational constants (in cm-1): 
          1.1488609727             1.1488609727
   Rotational constants (in MHz): 
      34441.9903163697         34441.9903163697
********************************************************************************
   The full molecular point group is CXv .
   The largest Abelian subgroup of the full molecular point group is C2v .
   The computational point group is C2v .
********************************************************************************
--------------------------------------------------------------------------------
   Analysis of internal coordinates specified by Z-matrix 
--------------------------------------------------------------------------------
   *The nuclear repulsion energy is   17.792621333333333 a.u.
   *There is   1 degree of freedom within the tot. symm. molecular subspace.
   *Z-matrix requests optimization of   0 coordinates.
   *The optimization is constrained.
   *The following   1 parameters can have non-zero 
    derivatives within the totally symmetric subspace:
             r    [ 1]
   *The following   0 parameters are to be optimized:

   *The following coordinates must be varied in an  unconstrained optimization.
             r    [ 1]
--------------------------------------------------------------------------------


 ----------------------------------------------------------------
         Coordinates used in calculation (QCOMP) 
 ----------------------------------------------------------------
 Z-matrix   Atomic            Coordinates (in bohr)
  Symbol    Number           X              Y              Z
 ----------------------------------------------------------------
     C         6        -0.00000000     0.00000000     1.61861830
     O         8         0.00000000     0.00000000    -1.07912921
 ----------------------------------------------------------------
 
   Interatomic distance matrix (Angstroms) 
 
                 C             O    
                [ 1]        [ 2]
  C    [ 1]     0.00000
  O    [ 2]     1.42759     0.00000
 rotcon2
   Rotational constants (in cm-1): 
          1.1488609727             0.0000000000
   Rotational constants (in MHz): 
      34441.9903163697             0.0000000000
  ECPDATA file not present.   Using default ECPDATA. 
  @GTFLGS-I, Hessian will be transformed to curvilinear coordinates.
  There are  218 basis functions.
 @CHECKOUT-I, Total execution time (CPU/WALL):        0.14/       0.19 seconds.
--executable xjoda finished with status     0 in        0.22 seconds (walltime).
 --invoking executable--
/nfs/workspaces/public/cfour_mpi/bin/xvmol
 SERIAL VERSION OF MOLECULE STARTED
********************************************************************************
                    INPUT FROM MOL FILE
********************************************************************************
INTGRL        1    0    1    0    0    0    0    0    0                         
         *** CFOUR Program System (Release V0.1) ***                            
Carbon Monoxide DBOC calculation                                                
    2    2 X  Y       0.10E-08              0    0                              
   9999.00      3.00                                                            
          6.00000000    1    5    1    1    1    1    1                         
C #1  -0.000000000000000   0.000000000000000   1.618618304600435                
   16    9                                                                      
   33980.0000000000       9.100000000000000E-005 -1.900000000000000E-005        
  0.000000000000000E+000  0.000000000000000E+000  0.000000000000000E+000        
  0.000000000000000E+000  0.000000000000000E+000  0.000000000000000E+000        
  0.000000000000000E+000                                                        
   5089.00000000000       7.040000000000000E-004 -1.510000000000000E-004        
  0.000000000000000E+000  0.000000000000000E+000  0.000000000000000E+000        
  0.000000000000000E+000  0.000000000000000E+000  0.000000000000000E+000        
  0.000000000000000E+000                                                        
   1157.00000000000       3.693000000000000E-003 -7.850000000000000E-004        
  0.000000000000000E+000  0.000000000000000E+000  0.000000000000000E+000        
  0.000000000000000E+000  0.000000000000000E+000  0.000000000000000E+000        
  0.000000000000000E+000                                                        
   326.600000000000       1.536000000000000E-002 -3.324000000000000E-003        
  0.000000000000000E+000  0.000000000000000E+000  0.000000000000000E+000        
  0.000000000000000E+000  0.000000000000000E+000  0.000000000000000E+000        
  0.000000000000000E+000                                                        
   106.100000000000       5.292900000000000E-002 -1.151200000000000E-002        
  0.000000000000000E+000  0.000000000000000E+000  0.000000000000000E+000        
  0.000000000000000E+000  0.000000000000000E+000  0.000000000000000E+000        
  0.000000000000000E+000                                                        
   38.1100000000000       0.147043000000000      -3.416000000000000E-002        
  0.000000000000000E+000  0.000000000000000E+000  0.000000000000000E+000        
  0.000000000000000E+000  0.000000000000000E+000  0.000000000000000E+000        
  0.000000000000000E+000                                                        
   14.7500000000000       0.305631000000000      -7.717300000000001E-002        
  0.000000000000000E+000  0.000000000000000E+000  0.000000000000000E+000        
  0.000000000000000E+000  0.000000000000000E+000  0.000000000000000E+000        
  0.000000000000000E+000                                                        
   6.03500000000000       0.399345000000000      -0.141493000000000             
  0.000000000000000E+000  0.000000000000000E+000  0.000000000000000E+000        
  0.000000000000000E+000  0.000000000000000E+000  0.000000000000000E+000        
  0.000000000000000E+000                                                        
   2.53000000000000       0.217051000000000      -0.118019000000000             
  0.000000000000000E+000  0.000000000000000E+000  0.000000000000000E+000        
  0.000000000000000E+000  0.000000000000000E+000  0.000000000000000E+000        
  0.000000000000000E+000                                                        
  0.735500000000000       1.589400000000000E-002  0.273806000000000             
   1.00000000000000       0.000000000000000E+000  0.000000000000000E+000        
  0.000000000000000E+000  0.000000000000000E+000  0.000000000000000E+000        
  0.000000000000000E+000                                                        
  0.290500000000000      -3.084000000000000E-003  0.586510000000000             
  0.000000000000000E+000   1.00000000000000       0.000000000000000E+000        
  0.000000000000000E+000  0.000000000000000E+000  0.000000000000000E+000        
  0.000000000000000E+000                                                        
  0.111100000000000       9.779999999999999E-004  0.285430000000000             
  0.000000000000000E+000  0.000000000000000E+000   1.00000000000000             
  0.000000000000000E+000  0.000000000000000E+000  0.000000000000000E+000        
  0.000000000000000E+000                                                        
   7.21600000000000       0.000000000000000E+000  0.000000000000000E+000        
  0.000000000000000E+000  0.000000000000000E+000  0.000000000000000E+000        
   1.00000000000000       0.000000000000000E+000  0.000000000000000E+000        
  0.000000000000000E+000                                                        
   19.5700000000000       0.000000000000000E+000  0.000000000000000E+000        
  0.000000000000000E+000  0.000000000000000E+000  0.000000000000000E+000        
  0.000000000000000E+000   1.00000000000000       0.000000000000000E+000        
  0.000000000000000E+000                                                        
   53.0730000000000       0.000000000000000E+000  0.000000000000000E+000        
  0.000000000000000E+000  0.000000000000000E+000  0.000000000000000E+000        
  0.000000000000000E+000  0.000000000000000E+000   1.00000000000000             
  0.000000000000000E+000                                                        
  4.145000000000000E-002  0.000000000000000E+000  0.000000000000000E+000        
  0.000000000000000E+000  0.000000000000000E+000  0.000000000000000E+000        
  0.000000000000000E+000  0.000000000000000E+000  0.000000000000000E+000        
   1.00000000000000                                                             
   10    8                                                                      
   34.5100000000000       5.378000000000000E-003  0.000000000000000E+000        
  0.000000000000000E+000  0.000000000000000E+000  0.000000000000000E+000        
  0.000000000000000E+000  0.000000000000000E+000  0.000000000000000E+000        
   7.91500000000000       3.613200000000000E-002  0.000000000000000E+000        
  0.000000000000000E+000  0.000000000000000E+000  0.000000000000000E+000        
  0.000000000000000E+000  0.000000000000000E+000  0.000000000000000E+000        
   2.36800000000000       0.142493000000000       0.000000000000000E+000        
  0.000000000000000E+000  0.000000000000000E+000  0.000000000000000E+000        
  0.000000000000000E+000  0.000000000000000E+000  0.000000000000000E+000        
  0.813200000000000       0.342150000000000        1.00000000000000             
  0.000000000000000E+000  0.000000000000000E+000  0.000000000000000E+000        
  0.000000000000000E+000  0.000000000000000E+000  0.000000000000000E+000        
  0.289000000000000       0.463864000000000       0.000000000000000E+000        
   1.00000000000000       0.000000000000000E+000  0.000000000000000E+000        
  0.000000000000000E+000  0.000000000000000E+000  0.000000000000000E+000        
  0.100700000000000       0.250028000000000       0.000000000000000E+000        
  0.000000000000000E+000   1.00000000000000       0.000000000000000E+000        
  0.000000000000000E+000  0.000000000000000E+000  0.000000000000000E+000        
   8.18200000000000       0.000000000000000E+000  0.000000000000000E+000        
  0.000000000000000E+000  0.000000000000000E+000   1.00000000000000             
  0.000000000000000E+000  0.000000000000000E+000  0.000000000000000E+000        
   24.1860000000000       0.000000000000000E+000  0.000000000000000E+000        
  0.000000000000000E+000  0.000000000000000E+000  0.000000000000000E+000        
   1.00000000000000       0.000000000000000E+000  0.000000000000000E+000        
   71.4940000000000       0.000000000000000E+000  0.000000000000000E+000        
  0.000000000000000E+000  0.000000000000000E+000  0.000000000000000E+000        
  0.000000000000000E+000   1.00000000000000       0.000000000000000E+000        
  3.218000000000000E-002  0.000000000000000E+000  0.000000000000000E+000        
  0.000000000000000E+000  0.000000000000000E+000  0.000000000000000E+000        
  0.000000000000000E+000  0.000000000000000E+000   1.00000000000000             
    6    6                                                                      
   1.84800000000000        1.00000000000000       0.000000000000000E+000        
  0.000000000000000E+000  0.000000000000000E+000  0.000000000000000E+000        
  0.000000000000000E+000                                                        
  0.649000000000000       0.000000000000000E+000   1.00000000000000             
  0.000000000000000E+000  0.000000000000000E+000  0.000000000000000E+000        
  0.000000000000000E+000                                                        
  0.228000000000000       0.000000000000000E+000  0.000000000000000E+000        
   1.00000000000000       0.000000000000000E+000  0.000000000000000E+000        
  0.000000000000000E+000                                                        
   8.65600000000000       0.000000000000000E+000  0.000000000000000E+000        
  0.000000000000000E+000   1.00000000000000       0.000000000000000E+000        
  0.000000000000000E+000                                                        
   33.2130000000000       0.000000000000000E+000  0.000000000000000E+000        
  0.000000000000000E+000  0.000000000000000E+000   1.00000000000000             
  0.000000000000000E+000                                                        
  7.660000000000000E-002  0.000000000000000E+000  0.000000000000000E+000        
  0.000000000000000E+000  0.000000000000000E+000  0.000000000000000E+000        
   1.00000000000000                                                             
    4    4                                                                      
   1.41900000000000        1.00000000000000       0.000000000000000E+000        
  0.000000000000000E+000  0.000000000000000E+000                                
  0.485000000000000       0.000000000000000E+000   1.00000000000000             
  0.000000000000000E+000  0.000000000000000E+000                                
   24.6940000000000       0.000000000000000E+000  0.000000000000000E+000        
   1.00000000000000       0.000000000000000E+000                                
  0.187000000000000       0.000000000000000E+000  0.000000000000000E+000        
  0.000000000000000E+000   1.00000000000000                                     
    2    2                                                                      
   1.01100000000000        1.00000000000000       0.000000000000000E+000        
  0.424000000000000       0.000000000000000E+000   1.00000000000000             
          8.00000000    1    5    1    1    1    1    1                         
O #2   0.000000000000000   0.000000000000000  -1.079129211111322                
   16    9                                                                      
   61420.0000000000       9.000000000000001E-005 -2.000000000000000E-005        
  0.000000000000000E+000  0.000000000000000E+000  0.000000000000000E+000        
  0.000000000000000E+000  0.000000000000000E+000  0.000000000000000E+000        
  0.000000000000000E+000                                                        
   9199.00000000000       6.980000000000001E-004 -1.590000000000000E-004        
  0.000000000000000E+000  0.000000000000000E+000  0.000000000000000E+000        
  0.000000000000000E+000  0.000000000000000E+000  0.000000000000000E+000        
  0.000000000000000E+000                                                        
   2091.00000000000       3.664000000000000E-003 -8.290000000000000E-004        
  0.000000000000000E+000  0.000000000000000E+000  0.000000000000000E+000        
  0.000000000000000E+000  0.000000000000000E+000  0.000000000000000E+000        
  0.000000000000000E+000                                                        
   590.900000000000       1.521800000000000E-002 -3.508000000000000E-003        
  0.000000000000000E+000  0.000000000000000E+000  0.000000000000000E+000        
  0.000000000000000E+000  0.000000000000000E+000  0.000000000000000E+000        
  0.000000000000000E+000                                                        
   192.300000000000       5.242300000000000E-002 -1.215600000000000E-002        
  0.000000000000000E+000  0.000000000000000E+000  0.000000000000000E+000        
  0.000000000000000E+000  0.000000000000000E+000  0.000000000000000E+000        
  0.000000000000000E+000                                                        
   69.3200000000000       0.145921000000000      -3.626100000000000E-002        
  0.000000000000000E+000  0.000000000000000E+000  0.000000000000000E+000        
  0.000000000000000E+000  0.000000000000000E+000  0.000000000000000E+000        
  0.000000000000000E+000                                                        
   26.9700000000000       0.305258000000000      -8.299200000000000E-002        
  0.000000000000000E+000  0.000000000000000E+000  0.000000000000000E+000        
  0.000000000000000E+000  0.000000000000000E+000  0.000000000000000E+000        
  0.000000000000000E+000                                                        
   11.1000000000000       0.398508000000000      -0.152090000000000             
  0.000000000000000E+000  0.000000000000000E+000  0.000000000000000E+000        
  0.000000000000000E+000  0.000000000000000E+000  0.000000000000000E+000        
  0.000000000000000E+000                                                        
   4.68200000000000       0.216980000000000      -0.115331000000000             
  0.000000000000000E+000  0.000000000000000E+000  0.000000000000000E+000        
  0.000000000000000E+000  0.000000000000000E+000  0.000000000000000E+000        
  0.000000000000000E+000                                                        
   1.42800000000000       1.759400000000000E-002  0.288979000000000             
   1.00000000000000       0.000000000000000E+000  0.000000000000000E+000        
  0.000000000000000E+000  0.000000000000000E+000  0.000000000000000E+000        
  0.000000000000000E+000                                                        
  0.554700000000000      -2.502000000000000E-003  0.586128000000000             
  0.000000000000000E+000   1.00000000000000       0.000000000000000E+000        
  0.000000000000000E+000  0.000000000000000E+000  0.000000000000000E+000        
  0.000000000000000E+000                                                        
  0.206700000000000       9.540000000000000E-004  0.277624000000000             
  0.000000000000000E+000  0.000000000000000E+000   1.00000000000000             
  0.000000000000000E+000  0.000000000000000E+000  0.000000000000000E+000        
  0.000000000000000E+000                                                        
   12.9740000000000       0.000000000000000E+000  0.000000000000000E+000        
  0.000000000000000E+000  0.000000000000000E+000  0.000000000000000E+000        
   1.00000000000000       0.000000000000000E+000  0.000000000000000E+000        
  0.000000000000000E+000                                                        
   34.9000000000000       0.000000000000000E+000  0.000000000000000E+000        
  0.000000000000000E+000  0.000000000000000E+000  0.000000000000000E+000        
  0.000000000000000E+000   1.00000000000000       0.000000000000000E+000        
  0.000000000000000E+000                                                        
   93.8810000000000       0.000000000000000E+000  0.000000000000000E+000        
  0.000000000000000E+000  0.000000000000000E+000  0.000000000000000E+000        
  0.000000000000000E+000  0.000000000000000E+000   1.00000000000000             
  0.000000000000000E+000                                                        
  6.959000000000000E-002  0.000000000000000E+000  0.000000000000000E+000        
  0.000000000000000E+000  0.000000000000000E+000  0.000000000000000E+000        
  0.000000000000000E+000  0.000000000000000E+000  0.000000000000000E+000        
   1.00000000000000                                                             
   10    8                                                                      
   63.4200000000000       6.044000000000000E-003  0.000000000000000E+000        
  0.000000000000000E+000  0.000000000000000E+000  0.000000000000000E+000        
  0.000000000000000E+000  0.000000000000000E+000  0.000000000000000E+000        
   14.6600000000000       4.179900000000000E-002  0.000000000000000E+000        
  0.000000000000000E+000  0.000000000000000E+000  0.000000000000000E+000        
  0.000000000000000E+000  0.000000000000000E+000  0.000000000000000E+000        
   4.45900000000000       0.161143000000000       0.000000000000000E+000        
  0.000000000000000E+000  0.000000000000000E+000  0.000000000000000E+000        
  0.000000000000000E+000  0.000000000000000E+000  0.000000000000000E+000        
   1.53100000000000       0.356731000000000        1.00000000000000             
  0.000000000000000E+000  0.000000000000000E+000  0.000000000000000E+000        
  0.000000000000000E+000  0.000000000000000E+000  0.000000000000000E+000        
  0.530200000000000       0.448309000000000       0.000000000000000E+000        
   1.00000000000000       0.000000000000000E+000  0.000000000000000E+000        
  0.000000000000000E+000  0.000000000000000E+000  0.000000000000000E+000        
  0.175000000000000       0.244940000000000       0.000000000000000E+000        
  0.000000000000000E+000   1.00000000000000       0.000000000000000E+000        
  0.000000000000000E+000  0.000000000000000E+000  0.000000000000000E+000        
   14.4750000000000       0.000000000000000E+000  0.000000000000000E+000        
  0.000000000000000E+000  0.000000000000000E+000   1.00000000000000             
  0.000000000000000E+000  0.000000000000000E+000  0.000000000000000E+000        
   42.7300000000000       0.000000000000000E+000  0.000000000000000E+000        
  0.000000000000000E+000  0.000000000000000E+000  0.000000000000000E+000        
   1.00000000000000       0.000000000000000E+000  0.000000000000000E+000        
   126.140000000000       0.000000000000000E+000  0.000000000000000E+000        
  0.000000000000000E+000  0.000000000000000E+000  0.000000000000000E+000        
  0.000000000000000E+000   1.00000000000000       0.000000000000000E+000        
  5.348000000000000E-002  0.000000000000000E+000  0.000000000000000E+000        
  0.000000000000000E+000  0.000000000000000E+000  0.000000000000000E+000        
  0.000000000000000E+000  0.000000000000000E+000   1.00000000000000             
    6    6                                                                      
   3.77500000000000        1.00000000000000       0.000000000000000E+000        
  0.000000000000000E+000  0.000000000000000E+000  0.000000000000000E+000        
  0.000000000000000E+000                                                        
   1.30000000000000       0.000000000000000E+000   1.00000000000000             
  0.000000000000000E+000  0.000000000000000E+000  0.000000000000000E+000        
  0.000000000000000E+000                                                        
  0.444000000000000       0.000000000000000E+000  0.000000000000000E+000        
   1.00000000000000       0.000000000000000E+000  0.000000000000000E+000        
  0.000000000000000E+000                                                        
   14.9270000000000       0.000000000000000E+000  0.000000000000000E+000        
  0.000000000000000E+000   1.00000000000000       0.000000000000000E+000        
  0.000000000000000E+000                                                        
   57.5440000000000       0.000000000000000E+000  0.000000000000000E+000        
  0.000000000000000E+000  0.000000000000000E+000   1.00000000000000             
  0.000000000000000E+000                                                        
  0.154000000000000       0.000000000000000E+000  0.000000000000000E+000        
  0.000000000000000E+000  0.000000000000000E+000  0.000000000000000E+000        
   1.00000000000000                                                             
    4    4                                                                      
   2.66600000000000        1.00000000000000       0.000000000000000E+000        
  0.000000000000000E+000  0.000000000000000E+000                                
  0.859000000000000       0.000000000000000E+000   1.00000000000000             
  0.000000000000000E+000  0.000000000000000E+000                                
   26.4830000000000       0.000000000000000E+000  0.000000000000000E+000        
   1.00000000000000       0.000000000000000E+000                                
  0.324000000000000       0.000000000000000E+000  0.000000000000000E+000        
  0.000000000000000E+000   1.00000000000000                                     
    2    2                                                                      
   1.84600000000000        1.00000000000000       0.000000000000000E+000        
  0.714000000000000       0.000000000000000E+000   1.00000000000000             
FINISH                                                                          
 
********************************************************************************
 ONE- AND TWO-ELECTRON INTEGRALS OVER SYMMETRY-ADAPTED AOS ARE CALCULATED.

  SPHERICAL HARMONICS ARE USED.
  
  INTEGRALS LESS THAN  0.10E-13 ARE NEGLECTED.

  NUCLEAR REPULSION ENERGY :   17.7926213333 A.U.
  @MOLECU-I, ONE ELECTRON INTEGRALS (CPU/WALL):        0.06/       0.08 SECONDS.
  @TWOEL-I,    4490072 INTEGRALS OF SYMMETRY TYPE  I I I I
  @TWOEL-I,   19360273 INTEGRALS OF SYMMETRY TYPE  I J I J
  @TWOEL-I,   10193653 INTEGRALS OF SYMMETRY TYPE  I I J J
  @TWOEL-I,   14327149 INTEGRALS OF SYMMETRY TYPE  I J K L
  @TWOEL-I, TOTAL NUMBER OF 2-E INTEGRALS   48371147.
  @MOLECU-I, TWO ELECTRON INTEGRALS (CPU/WALL):      232.51/      31.44 SECONDS.
 @CHECKOUT-I, Total execution time (CPU/WALL):      232.58/      31.56 seconds.

Running with 14 threads/proc

--executable xvmol finished with status     0 in       31.60 seconds (walltime).
 --invoking executable--
/nfs/workspaces/public/cfour_mpi/bin/xvmol2ja
 @GETMEM-I,  Allocated    3814 MB of main memory.
 @CHECKOUT-I, Total execution time (CPU/WALL):        0.16/       0.08 seconds.
--executable xvmol2ja finished with status     0 in        0.13 seconds (walltime).
 --invoking executable--
/nfs/workspaces/public/cfour_mpi/bin/xvprop
 @GETMEM-I,  Allocated    3814 MB of main memory.
   Property integrals will be calculated.
    --------------------------------------------------------------
                                   Property evaluated at 
    Property type                X             Y             Z
    --------------------------------------------------------------
    Dipole moment               ----          ----          ----  
    Quadrupole moment           ----          ----          ----  
    Octopole moment             ----          ----          ----  
    Relativisitic corr.         ----          ----          ----  
    Second moment            0.0000000     0.0000000     0.0000000
    Electron density         0.0000000     0.0000000     1.6186183
    Electron density         0.0000000     0.0000000    -1.0791292
    Field gradient           0.0000000     0.0000000     1.6186183
    Field gradient           0.0000000     0.0000000    -1.0791292
    Potential                0.0000000     0.0000000     1.6186183
    Potential                0.0000000     0.0000000    -1.0791292
    --------------------------------------------------------------
 @CHECKOUT-I, Total execution time (CPU/WALL):        1.30/       1.33 seconds.
--executable xvprop finished with status     0 in        1.35 seconds (walltime).
 --invoking executable--
/nfs/workspaces/public/cfour_mpi/bin/xvscf
  There are  218 functions in the AO basis.

  There are 4 irreducible representations.

       Irrep        # of functions
         1                 86
         2                 52
         3                 52
         4                 28


  Parameters for SCF calculation: 
        SCF reference function:  RHF  
  Maximum number of iterations:  150
     Full symmetry point group: CXv 
     Computational point group: C2v 
        Initial density matrix: MOREAD                 
     SCF convergence tolerance: 10**(-10)
  DIIS convergence acceleration:  ON
          Latest start for DIIS:   8
                     DIIS order:   6

  Memory information:    2523578 words required.
  Fock matrices are constructed from AO integral file.
 @GETMEM-I,  Allocated      19 MB of main memory.
  Initialization and symmetry analysis required      0.001 seconds.

  Adding electric field perturbation to one-electron Hamiltonian.
  Field direction     : Z
  Field strength      : -0.0002000 a.u.

  @INITGES-I, Occupancies from core Hamiltonian:

          Alpha population by irrep:   5    1    1    0
           Beta population by irrep:   5    1    1    0


 total no. of electrons in initial guess :  0.000000000000000E+000
  --------------------------------------------------------------------
  Iteration         Total Energy            Largest Density Difference
  --------------------------------------------------------------------
       0            17.792837068560527              0.0000000000D+00
   current occupation vector 
     5  1  1  0
     5  1  1  0
       1           -93.247220449369465              0.1756600802D+02
   current occupation vector 
     5  1  1  0
     5  1  1  0
       2           -98.350115415168531              0.1756367599D+02
   current occupation vector 
     5  1  1  0
     5  1  1  0
       3          -103.128623380787573              0.6480358793D+01
   current occupation vector 
     5  1  1  0
     5  1  1  0
       4           -98.268604617999912              0.6473801834D+01
   current occupation vector 
     5  1  1  0
     5  1  1  0
       5          -101.113006689418881              0.6544123307D+01
   current occupation vector 
     5  1  1  0
     5  1  1  0
       6           -96.675751799047774              0.6534953288D+01
   current occupation vector 
     5  1  1  0
     5  1  1  0
       7          -101.077287790672216              0.6664746025D+01
   current occupation vector 
     5  1  1  0
     5  1  1  0
       8           -96.597354037559569              0.6664930868D+01
   current occupation vector 
     5  1  1  0
     5  1  1  0
       9          -107.888475056434999              0.5166421012D+01
   current occupation vector 
     5  1  1  0
     5  1  1  0
      10          -109.702507962635664              0.9416366243D+00
   current occupation vector 
     5  1  1  0
     5  1  1  0
      11          -112.341846263122122              0.1510461348D+01
   current occupation vector 
     5  1  1  0
     5  1  1  0
      12          -112.637990429544274              0.5300080094D+00
   current occupation vector 
     5  1  1  0
     5  1  1  0
      13          -112.641201625377661              0.9694659175D-01
   current occupation vector 
     5  1  1  0
     5  1  1  0
      14          -112.641907464612459              0.4002241266D-01
   current occupation vector 
     5  1  1  0
     5  1  1  0
      15          -112.641955027325238              0.1051483970D-01
   current occupation vector 
     5  1  1  0
     5  1  1  0
      16          -112.641960662459198              0.3997284200D-02
   current occupation vector 
     5  1  1  0
     5  1  1  0
      17          -112.641962142351062              0.2740803802D-02
   current occupation vector 
     5  1  1  0
     5  1  1  0
      18          -112.641962263934161              0.8107063528D-03
   current occupation vector 
     5  1  1  0
     5  1  1  0
      19          -112.641962265589839              0.1168726337D-03
   current occupation vector 
     5  1  1  0
     5  1  1  0
      20          -112.641962265645091              0.7280675939D-05
   current occupation vector 
     5  1  1  0
     5  1  1  0
      21          -112.641962265643642              0.8893863002D-06
   current occupation vector 
     5  1  1  0
     5  1  1  0
      22          -112.641962265644494              0.1690977709D-06
   current occupation vector 
     5  1  1  0
     5  1  1  0
      23          -112.641962265644210              0.2281096090D-07
   current occupation vector 
     5  1  1  0
     5  1  1  0
      24          -112.641962265644040              0.5289269911D-08
   current occupation vector 
     5  1  1  0
     5  1  1  0
      25          -112.641962265644807              0.1485084500D-08
   current occupation vector 
     5  1  1  0
     5  1  1  0
      26          -112.641962265644523              0.3087856637D-09
   current occupation vector 
     5  1  1  0
     5  1  1  0
      27          -112.641962265644011              0.2490574413D-09
   current occupation vector 
     5  1  1  0
     5  1  1  0
      28          -112.641962265643926              0.1555824358D-09
   current occupation vector 
     5  1  1  0
     5  1  1  0
      29          -112.641962265644381              0.3196261034D-09
   current occupation vector 
     5  1  1  0
     5  1  1  0

  SCF has converged.

 Density matrix saved to file den.dat
 total electron number:   14.0000000000000     
     E(SCF)=      -112.641962265645006              0.6380651563D-10

  Eigenvector printing suppressed.

 @PUTMOS-I, Writing converged MOs to NEWMOS. 
 @PUTMOS-I, Symmetry   1 Full Blocks 21 Partial Blocksize   2
 @PUTMOS-I, Symmetry   2 Full Blocks 13 Partial Blocksize   0
 @PUTMOS-I, Symmetry   3 Full Blocks 13 Partial Blocksize   0
 @PUTMOS-I, Symmetry   4 Full Blocks  7 Partial Blocksize   0
 @PUTFOCK-I, Writing converged Fock matrix to NEWFOCK. 
 @PUTFOCK-I, Symmetry   1 Full Blocks 21 Partial Blocksize   2
 @PUTFOCK-I, Symmetry   2 Full Blocks 13 Partial Blocksize   0
 @PUTFOCK-I, Symmetry   3 Full Blocks 13 Partial Blocksize   0
 @PUTFOCK-I, Symmetry   4 Full Blocks  7 Partial Blocksize   0


 
  ORBITAL EIGENVALUES (ALPHA)  (1H = 27.2113834 eV)

       MO #        E(hartree)               E(eV)           FULLSYM    COMPSYM
       ----   --------------------   --------------------   -------   ---------
    1     1         -20.6597016830        -562.1790634262     SG+        A1 (1)
    2     2         -11.4778926539        -312.3293376293     SG+        A1 (1)
    3     3          -1.3467163800         -36.6460157470     SG+        A1 (1)
    4     4          -0.7943589856         -21.6156069137     SG+        A1 (1)
    5     5          -0.5591800850         -15.2160636820     SG+        A1 (1)
    6   139          -0.5363560494         -14.5949900995      PI        B2 (3)
    7    87          -0.5363560494         -14.5949900995      PI        B1 (2)
  +++++++++++++++++++++++++++++++++++++++++++++++++++++++++++++++++++++++++++++
    8   140           0.0269033164           0.7320764570      PI        B2 (3)
    9    88           0.0269033164           0.7320764570      PI        B1 (2)
   10     6           0.0630948036           1.7168968908     SG+        A1 (1)
   11     7           0.0683817305           1.8607614870     SG+        A1 (1)
   12   141           0.0876336765           2.3846335697      PI        B2 (3)
   13    89           0.0876336765           2.3846335697      PI        B1 (2)
   14     8           0.1573456657           4.2815932358     SG+        A1 (1)
   15   142           0.1738561877           4.7308673804      PI        B2 (3)
   16    90           0.1738561877           4.7308673804      PI        B1 (2)
   17     9           0.2229758235           6.0674806225     SG+        A1 (1)
   18   191           0.2246615898           6.1133526559      DE        A2 (4)
   19    10           0.2246615898           6.1133526559      DE        A1 (1)
   20   143           0.2948586004           8.0235104251      PI        B2 (3)
   21    91           0.2948586004           8.0235104251      PI        B1 (2)
   22    11           0.2994556127           8.1486014896     SG+        A1 (1)
   23    12           0.3617698058           9.8442568887     SG+        A1 (1)
   24   144           0.3995849510          10.8732593027      PI        B2 (3)
   25    92           0.3995849510          10.8732593027      PI        B1 (2)
   26    13           0.4749266243          12.9234104616     SG+        A1 (1)
   27    14           0.5118594195          13.9284029117     SG+        A1 (1)
   28    15           0.5474029863          14.8955925349      DE        A1 (1)
   29   192           0.5474029863          14.8955925350      DE        A2 (4)
   30   145           0.6250121093          17.0074441360      PI        B2 (3)
   31    93           0.6250121093          17.0074441360      PI        B1 (2)
   32    16           0.7285447777          19.8247112690     SG+        A1 (1)
   33   146           0.7388988166          20.1064589914      PH        B2 (3)
   34    94           0.7388988166          20.1064589914      PH        B1 (2)
   35    17           0.7501084795          20.4114894286      DE        A1 (1)
   36   193           0.7501084795          20.4114894286      DE        A2 (4)
   37    95           0.7899873964          21.4966499235      PI        B1 (2)
   38   147           0.7899873964          21.4966499235      PI        B2 (3)
   39    18           0.8252649837          22.4566018787     SG+        A1 (1)
   40    19           0.8684716356          23.6323146481     SG+        A1 (1)
   41   194           0.8722409580          23.7348831244      DE        A2 (4)
   42    20           0.8722409580          23.7348831244      DE        A1 (1)
   43    96           0.8973912019          24.4192560555      PI        B1 (2)
   44   148           0.8973912019          24.4192560555      PI        B2 (3)
   45    97           1.0328424092          28.1050707878      PI        B1 (2)
   46   149           1.0328424092          28.1050707878      PI        B2 (3)
   47    21           1.1228413941          30.5540676731     SG+        A1 (1)
   48    22           1.3954015612          37.9708068780     SG+        A1 (1)
   49    98           1.4276212015          38.8475478652      PH        B1 (2)
   50   150           1.4276212015          38.8475478652      PH        B2 (3)
   51   151           1.5474594273          42.1085117722      PI        B2 (3)
   52    99           1.5474594273          42.1085117722      PI        B1 (2)
   53   195           1.5667602598          42.6337141262      DE        A2 (4)
   54    23           1.5667602598          42.6337141263      DE        A1 (1)
   55    24           1.6267541341          44.2662304416     SG+        A1 (1)
   56   152           1.6441643494          44.7399864835      PI        B2 (3)
   57   100           1.6441643494          44.7399864835      PI        B1 (2)
   58    25           1.7115744905          46.5743096788      DE        A1 (1)
   59   196           1.7115744905          46.5743096788      DE        A2 (4)
   60    26           1.8881924402          51.3803284243     SG+        A1 (1)
   61    27           2.0020940709          54.4797493666     SG+        A1 (1)
   62   197           2.0821005607          56.6568366338      PI        A2 (4)
   63    28           2.0821005607          56.6568366338      PI        A1 (1)
   64   101           2.0879439022          56.8158420405      PI        B1 (2)
   65   153           2.0879439022          56.8158420405      PI        B2 (3)
   66   198           2.1463611520          58.4054562230      DE        A2 (4)
   67    29           2.1463611520          58.4054562230      DE        A1 (1)
   68   154           2.2230251857          60.4915906349      PH        B2 (3)
   69   102           2.2230251857          60.4915906349      PH        B1 (2)
   70   155           2.2582396754          61.4498256164      PI        B2 (3)
   71   103           2.2582396754          61.4498256164      PI        B1 (2)
   72   104           2.2587383122          61.4633942141      PH        B1 (2)
   73   156           2.2587383122          61.4633942141      PH        B2 (3)
   74    30           2.2642041162          61.6121263031     SG+        A1 (1)
   75   199           2.3111381646          62.8892666878      DE        A2 (4)
   76    31           2.3111381646          62.8892666878      DE        A1 (1)
   77    32           2.4889387344          67.7274661606     SG+        A1 (1)
   78   105           2.5230296167          68.6551262289      PI        B1 (2)
   79   157           2.5230296167          68.6551262290      PI        B2 (3)
   80    33           2.6034512680          70.8435106158     SG+        A1 (1)
   81   158           2.6334431155          71.6596302779      PI        B2 (3)
   82   106           2.6334431155          71.6596302779      PI        B1 (2)
   83    34           2.7588951188          75.0733528391      DE        A1 (1)
   84   200           2.7588951188          75.0733528391      DE        A2 (4)
   85    35           3.1978008861          87.0165859487     SG+        A1 (1)
   86   159           3.5456963180          96.4833019290      PI        B2 (3)
   87   107           3.5456963180          96.4833019290      PI        B1 (2)
   88    36           3.7013832825         100.7197596101      PI        A1 (1)
   89   201           3.7013832825         100.7197596101      PI        A2 (4)
   90    37           3.9031948881         106.2113325842     SG+        A1 (1)
   91   160           4.0033079158         108.9355465656      PH        B2 (3)
   92   108           4.0033079158         108.9355465656      PH        B1 (2)
   93   161           4.1273859237         112.3118808091      PH        B2 (3)
   94   109           4.1273859237         112.3118808091      PH        B1 (2)
   95   110           4.1660730456         113.3646109169      PI        B1 (2)
   96   162           4.1660730456         113.3646109169      PI        B2 (3)
   97    38           4.2023441493         114.3515978254     SG+        A1 (1)
   98   202           4.2222642035         114.8936500573      DE        A2 (4)
   99    39           4.2222642035         114.8936500573      DE        A1 (1)
  100    40           4.2746085452         116.3180120074      DE        A1 (1)
  101   203           4.2746085452         116.3180120076      DE        A2 (4)
  102    41           4.4157351962         120.1582634168     SG+        A1 (1)
  103   163           4.6843814626         127.4684999696      PI        B2 (3)
  104   111           4.6843814626         127.4684999696      PI        B1 (2)
  105   204           4.8492854591         131.9557658427      DE        A2 (4)
  106    42           4.8492854591         131.9557658428      DE        A1 (1)
  107    43           4.8652930879         132.3913555674     SG+        A1 (1)
  108   112           5.1169341905         139.2388580904      PI        B1 (2)
  109   164           5.1169341905         139.2388580904      PI        B2 (3)
  110    44           5.3791423454         146.3739047225     SG+        A1 (1)
  111   113           5.4446596048         148.1567199890      PI        B1 (2)
  112   165           5.4446596048         148.1567199891      PI        B2 (3)
  113    45           5.8534171119         159.2795772321      PI        A1 (1)
  114   205           5.8534171119         159.2795772321      PI        A2 (4)
  115   166           5.9426209262         161.7069364247      PH        B2 (3)
  116   114           5.9426209262         161.7069364247      PH        B1 (2)
  117    46           6.1481459217         167.2995558739     SG+        A1 (1)
  118    47           6.1795425441         168.1539014030      DE        A1 (1)
  119   206           6.1795425441         168.1539014030      DE        A2 (4)
  120   115           6.2015986467         168.7540784689      PI        B1 (2)
  121   167           6.2015986467         168.7540784689      PI        B2 (3)
  122    48           6.2851754608         171.0283191989     SG+        A1 (1)
  123   168           6.3859777300         173.7712883940      PH        B2 (3)
  124   116           6.3859777300         173.7712883940      PH        B1 (2)
  125    49           6.5132122427         177.2335155019      DE        A1 (1)
  126   207           6.5132122427         177.2335155019      DE        A2 (4)
  127   208           6.5208655932         177.4417737575      DE        A2 (4)
  128    50           6.5208655932         177.4417737575      DE        A1 (1)
  129   117           6.9501951304         189.1244243986      PI        B1 (2)
  130   169           6.9501951304         189.1244243986      PI        B2 (3)
  131    51           7.2394342362         196.9950205991     SG+        A1 (1)
  132   118           7.6246591949         207.4775246471      PI        B1 (2)
  133   170           7.6246591949         207.4775246471      PI        B2 (3)
  134    52           8.2543404582         224.6120229214     SG+        A1 (1)
  135    53           9.7178480709         264.4360896810     SG+        A1 (1)
  136   119           9.9382180108         270.4326606041      PI        B1 (2)
  137   171           9.9382180108         270.4326606042      PI        B2 (3)
  138    54          10.6307717187         289.2780050766      PI        A1 (1)
  139   209          10.6307717187         289.2780050766      PI        A2 (4)
  140    55          10.7515204866         292.5637460926     SG+        A1 (1)
  141   120          10.7622510836         292.8557404820      PH        B1 (2)
  142   172          10.7622510836         292.8557404820      PH        B2 (3)
  143    56          10.9970702164         299.2454939348      DE        A1 (1)
  144   210          10.9970702164         299.2454939348      DE        A2 (4)
  145   121          11.0394683790         300.3992065937      PI        B1 (2)
  146   173          11.0394683790         300.3992065937      PI        B2 (3)
  147    57          11.3120717574         307.8171216376     SG+        A1 (1)
  148   174          11.8718105205         323.0483877266      PH        B2 (3)
  149   122          11.8718105205         323.0483877266      PH        B1 (2)
  150    58          12.0487493373         327.8631377076      DE        A1 (1)
  151   211          12.0487493373         327.8631377084      DE        A2 (4)
  152   123          12.5758558353         342.2064347162      PI        B1 (2)
  153   175          12.5758558353         342.2064347162      PI        B2 (3)
  154    59          12.7535048991         347.0405115022      DE        A1 (1)
  155   212          12.7535048991         347.0405115022      DE        A2 (4)
  156    60          12.8463334745         349.5665054597     SG+        A1 (1)
  157   124          13.0995921554         356.4580245233      PI        B1 (2)
  158   176          13.0995921554         356.4580245233      PI        B2 (3)
  159    61          13.8967775709         378.1505425056     SG+        A1 (1)
  160    62          17.4865894220         475.8342891207     SG+        A1 (1)
  161   125          18.8618168537         513.2561300265      PI        B1 (2)
  162   177          18.8618168537         513.2561300266      PI        B2 (3)
  163    63          20.2141001576         550.0536294751     SG+        A1 (1)
  164    64          26.3192688091         716.1837143723      DE        A1 (1)
  165   213          26.3192688091         716.1837143724      DE        A2 (4)
  166   126          26.7185744727         727.0493738791      PI        B1 (2)
  167   178          26.7185744727         727.0493738791      PI        B2 (3)
  168    65          27.2258169077         740.8521422531     SG+        A1 (1)
  169   127          33.5948788317         914.1631281665      PI        B1 (2)
  170   179          33.5948788317         914.1631281673      PI        B2 (3)
  171    66          34.3482355241         934.6630059605     SG+        A1 (1)
  172    67          35.9359116219         977.8658689730     SG+        A1 (1)
  173   214          47.0767055686        1281.0222844371      DE        A2 (4)
  174    68          47.0767055686        1281.0222844371      DE        A1 (1)
  175   128          47.2633999009        1286.1024954922      PI        B1 (2)
  176   180          47.2633999010        1286.1024954923      PI        B2 (3)
  177    69          47.7449355382        1299.2057463390     SG+        A1 (1)
  178    70          63.8909742328        1738.5617956493     SG+        A1 (1)
  179   181          66.4174291374        1807.3101287002      PI        B2 (3)
  180   129          66.4174291374        1807.3101287002      PI        B1 (2)
  181    71          67.3862764510        1833.6738044057     SG+        A1 (1)
  182   182          98.5530628189        2681.7651776092      PH        B2 (3)
  183   130          98.5530628189        2681.7651776092      PH        B1 (2)
  184   215          98.5665484585        2682.1321405200      DE        A2 (4)
  185    72          98.5665484585        2682.1321405200      DE        A1 (1)
  186   131          98.5848770679        2682.6308873362      PI        B1 (2)
  187   183          98.5848770679        2682.6308873362      PI        B2 (3)
  188    73          98.6032436341        2683.1306670107     SG+        A1 (1)
  189   184         103.2927508178        2810.7386449426      PH        B2 (3)
  190   132         103.2927508178        2810.7386449426      PH        B1 (2)
  191    74         103.3061455878        2811.1031351651      DE        A1 (1)
  192   216         103.3061455878        2811.1031351656      DE        A2 (4)
  193   133         103.3491217464        2812.2725758957      PI        B1 (2)
  194   185         103.3491217464        2812.2725758957      PI        B2 (3)
  195    75         103.3514334167        2812.3354796415     SG+        A1 (1)
  196    76         115.0132988337        3129.6709706631      DE        A1 (1)
  197   217         115.0132988337        3129.6709706632      DE        A2 (4)
  198   134         115.2049508985        3134.8860884784      PI        B1 (2)
  199   186         115.2049508985        3134.8860884785      PI        B2 (3)
  200    77         115.4815853927        3142.4136957603     SG+        A1 (1)
  201   135         116.8730562149        3180.2775417944      PI        B1 (2)
  202   187         116.8730562150        3180.2775417952      PI        B2 (3)
  203    78         117.4906205913        3197.0823228135     SG+        A1 (1)
  204    79         122.1322438342        3323.3873124750     SG+        A1 (1)
  205   218         198.5516033211        5402.8638026552      DE        A2 (4)
  206    80         198.5516033211        5402.8638026553      DE        A1 (1)
  207   188         198.6524838871        5405.6089024144      PI        B2 (3)
  208   136         198.6524838871        5405.6089024145      PI        B1 (2)
  209    81         198.9050125598        5412.4805569458     SG+        A1 (1)
  210    82         216.4232429702        5889.1758411331     SG+        A1 (1)
  211   189         224.8833318915        6119.3865643682      PI        B2 (3)
  212   137         224.8833318915        6119.3865643682      PI        B1 (2)
  213    83         225.6361455034        6139.8716641904     SG+        A1 (1)
  214   138         395.3604976894       10758.3060838399      PI        B1 (2)
  215   190         395.3604976894       10758.3060838406      PI        B2 (3)
  216    84         395.8896776622       10772.7058029673     SG+        A1 (1)
  217    85         508.7880244806       13844.8260034691     SG+        A1 (1)
  218    86         895.2537295758       24361.0924757684     SG+        A1 (1)


  VSCF finished.

 @CHECKOUT-I, Total execution time (CPU/WALL):       54.81/      13.15 seconds.
--executable xvscf finished with status     0 in       13.18 seconds (walltime).
 --invoking executable--
/nfs/workspaces/public/cfour_mpi/bin/xvtran
 @GETMEM-I,  Allocated    3814 MB of main memory.
  Full RHF integral transformation
  Transformation of IIII integrals :
  1 pass through the AO integral file was required.
     4490072 AO integrals were read.
     8717155 MO integrals were written to HF2.
  Transformation of IIJJ integrals :
  1 pass through the AO integral file was required.
    10193653 AO integrals were read.
    14484476 MO integrals were written to HF2.
  Transformation of IJIJ integrals :
  1 pass through the AO integral file was required.
    19360273 AO integrals were read.
    27052802 MO integrals were written to HF2.
  Transformation of IJKL integrals :
  1 pass through the AO integral file was required.
    14327149 AO integrals were read.
    18286465 MO integrals were written to HF2.
  Summary of active molecular orbitals: 
------------------------------------------------------------------------
 
  Index      Eigenvalue    Symmetry    Index      Eigenvalue    Symmetry
------------------------------------------------------------------------
     1       -20.6597017        1       110         4.1273859        2
     2       -11.4778927        1       111         4.1660730        2
     3        -1.3467164        1       112         4.6843815        2
     4        -0.7943590        1       113         5.1169342        2
     5        -0.5591801        1       114         5.4446596        2
     6        -0.5363560        2       115         5.9426209        2
     7        -0.5363560        3       116         6.2015986        2
     8         0.0630948        1       117         6.3859777        2
     9         0.0683817        1       118         6.9501951        2
    10         0.1573457        1       119         7.6246592        2
    11         0.2229758        1       120         9.9382180        2
    12         0.2246616        1       121        10.7622511        2
    13         0.2994556        1       122        11.0394684        2
    14         0.3617698        1       123        11.8718105        2
    15         0.4749266        1       124        12.5758558        2
    16         0.5118594        1       125        13.0995922        2
    17         0.5474030        1       126        18.8618169        2
    18         0.7285448        1       127        26.7185745        2
    19         0.7501085        1       128        33.5948788        2
    20         0.8252650        1       129        47.2633999        2
    21         0.8684716        1       130        66.4174291        2
    22         0.8722410        1       131        98.5530628        2
    23         1.1228414        1       132        98.5848771        2
    24         1.3954016        1       133       103.2927508        2
    25         1.5667603        1       134       103.3491217        2
    26         1.6267541        1       135       115.2049509        2
    27         1.7115745        1       136       116.8730562        2
    28         1.8881924        1       137       198.6524839        2
    29         2.0020941        1       138       224.8833319        2
    30         2.0821006        1       139       395.3604977        2
    31         2.1463612        1       140         0.0269033        3
    32         2.2642041        1       141         0.0876337        3
    33         2.3111382        1       142         0.1738562        3
    34         2.4889387        1       143         0.2948586        3
    35         2.6034513        1       144         0.3995850        3
    36         2.7588951        1       145         0.6250121        3
    37         3.1978009        1       146         0.7388988        3
    38         3.7013833        1       147         0.7899874        3
    39         3.9031949        1       148         0.8973912        3
    40         4.2023441        1       149         1.0328424        3
    41         4.2222642        1       150         1.4276212        3
    42         4.2746085        1       151         1.5474594        3
    43         4.4157352        1       152         1.6441643        3
    44         4.8492855        1       153         2.0879439        3
    45         4.8652931        1       154         2.2230252        3
    46         5.3791423        1       155         2.2582397        3
    47         5.8534171        1       156         2.2587383        3
    48         6.1481459        1       157         2.5230296        3
    49         6.1795425        1       158         2.6334431        3
    50         6.2851755        1       159         3.5456963        3
    51         6.5132122        1       160         4.0033079        3
    52         6.5208656        1       161         4.1273859        3
    53         7.2394342        1       162         4.1660730        3
    54         8.2543405        1       163         4.6843815        3
    55         9.7178481        1       164         5.1169342        3
    56        10.6307717        1       165         5.4446596        3
    57        10.7515205        1       166         5.9426209        3
    58        10.9970702        1       167         6.2015986        3
    59        11.3120718        1       168         6.3859777        3
    60        12.0487493        1       169         6.9501951        3
    61        12.7535049        1       170         7.6246592        3
    62        12.8463335        1       171         9.9382180        3
    63        13.8967776        1       172        10.7622511        3
    64        17.4865894        1       173        11.0394684        3
    65        20.2141002        1       174        11.8718105        3
    66        26.3192688        1       175        12.5758558        3
    67        27.2258169        1       176        13.0995922        3
    68        34.3482355        1       177        18.8618169        3
    69        35.9359116        1       178        26.7185745        3
    70        47.0767056        1       179        33.5948788        3
    71        47.7449355        1       180        47.2633999        3
    72        63.8909742        1       181        66.4174291        3
    73        67.3862765        1       182        98.5530628        3
    74        98.5665485        1       183        98.5848771        3
    75        98.6032436        1       184       103.2927508        3
    76       103.3061456        1       185       103.3491217        3
    77       103.3514334        1       186       115.2049509        3
    78       115.0132988        1       187       116.8730562        3
    79       115.4815854        1       188       198.6524839        3
    80       117.4906206        1       189       224.8833319        3
    81       122.1322438        1       190       395.3604977        3
    82       198.5516033        1       191         0.2246616        4
    83       198.9050126        1       192         0.5474030        4
    84       216.4232430        1       193         0.7501085        4
    85       225.6361455        1       194         0.8722410        4
    86       395.8896777        1       195         1.5667603        4
    87       508.7880245        1       196         1.7115745        4
    88       895.2537296        1       197         2.0821006        4
    89         0.0269033        2       198         2.1463612        4
    90         0.0876337        2       199         2.3111382        4
    91         0.1738562        2       200         2.7588951        4
    92         0.2948586        2       201         3.7013833        4
    93         0.3995850        2       202         4.2222642        4
    94         0.6250121        2       203         4.2746085        4
    95         0.7388988        2       204         4.8492855        4
    96         0.7899874        2       205         5.8534171        4
    97         0.8973912        2       206         6.1795425        4
    98         1.0328424        2       207         6.5132122        4
    99         1.4276212        2       208         6.5208656        4
   100         1.5474594        2       209        10.6307717        4
   101         1.6441643        2       210        10.9970702        4
   102         2.0879439        2       211        12.0487493        4
   103         2.2230252        2       212        12.7535049        4
   104         2.2582397        2       213        26.3192688        4
   105         2.2587383        2       214        47.0767056        4
   106         2.5230296        2       215        98.5665485        4
   107         2.6334431        2       216       103.3061456        4
   108         3.5456963        2       217       115.0132988        4
   109         4.0033079        2       218       198.5516033        4
------------------------------------------------------------------------
  -20.6597016830152       -11.4778926538981       -1.34671637999220     
 -0.794358985573793      -0.559180084980373      -0.536356049413717     
 -0.536356049413734       6.309480358023183E-002  6.838173053041427E-002
  0.157345665704753       0.222975823511974       0.224661589823071     
  0.299455612740280       0.361769805818780       0.474926624333789     
  0.511859419529411       0.547402986316010       0.728544777662256     
  0.750108479548617       0.825264983724088       0.868471635592383     
  0.872240957967809        1.12284139413194        1.39540156117158     
   1.56676025983505        1.62675413413847        1.71157449050530     
   1.88819244023826        2.00209407091661        2.08210056067024     
   2.14636115203965        2.26420411624855        2.31113816461851     
   2.48893873439112        2.60345126796429        2.75889511883699     
   3.19780088610493        3.70138328248564        3.90319488806981     
   4.20234414930028        4.22226420349162        4.27460854516574     
   4.41573519620481        4.84928545906864        4.86529308786917     
   5.37914234535177        5.85341711190422        6.14814592167679     
   6.17954254405825        6.28517546075755        6.51321224270903     
   6.52086559323992        7.23943423615672        8.25434045817007     
[...]
 Convergence information after    14 iterations: 
 Largest element of residual vector : -0.13148768E-05.
 Largest element of DIIS residual   : -0.88712615E-06.
 Convergence information after    15 iterations: 
 Largest element of residual vector : -0.67797381E-06.
 Largest element of DIIS residual   : -0.49816261E-06.
 Convergence information after    16 iterations: 
 Largest element of residual vector : -0.40116301E-06.
 Largest element of DIIS residual   : -0.17032667E-06.
 Convergence information after    17 iterations: 
 Largest element of residual vector : -0.12252996E-06.
 Largest element of DIIS residual   : -0.43282601E-07.
 Perturbed amplitude equations converged in    17 iterations.
  Dominant contributions to perturbed wavefunction:
    7    7  140   28   0.2460005325 ABAB
    7    7   28  140   0.2460005325 ABAB
    7    7  140   39  -0.2220002366 ABAB
    7    7   39  140  -0.2220002366 ABAB
    7    7  140   54  -0.1709952334 ABAB
    7    7   54  140  -0.1709952334 ABAB
    7    7  140   21  -0.1673743717 ABAB
    7    7   21  140  -0.1673743717 ABAB
    7    7  140   45   0.1572891951 ABAB
    7    7   45  140   0.1572891951 ABAB
    7    6   28   89   0.1556905040 ABAB
    6    7   89   28   0.1556905040 ABAB
    7    6   39   89  -0.1412120740 ABAB
    6    7   89   39  -0.1412120740 ABAB
    7    7  140   57   0.1355169718 ABAB
    7    7   57  140   0.1355169718 ABAB
    7    7  140   20  -0.1328280294 ABAB
    7    7   20  140  -0.1328280294 ABAB
    7    7  140   24   0.1313131871 ABAB
    7    7   24  140   0.1313131871 ABAB
  norm of converged amps    1.86449624489144     
 Starting iterative solution of the perturbed Lambda equations.
 The DIIS procedure is used to accelerate convergence.
 Convergence criterion is 10**(-7).
 Maximum number of iterations is 100.
 Convergence information after     1 iterations: 
 Largest element of residual vector :  0.64969778E-01.
 Largest element of DIIS residual   :  0.64969778E-01.
 Convergence information after     2 iterations: 
 Largest element of residual vector : -0.12059366E-01.
 Largest element of DIIS residual   : -0.85382986E-02.
 Convergence information after     3 iterations: 
 Largest element of residual vector :  0.59632606E-02.
 Largest element of DIIS residual   :  0.54809778E-02.
 Convergence information after     4 iterations: 
 Largest element of residual vector :  0.37316969E-02.
 Largest element of DIIS residual   :  0.32793705E-02.
 Convergence information after     5 iterations: 
 Largest element of residual vector :  0.27901294E-02.
 Largest element of DIIS residual   :  0.17945268E-02.
 Convergence information after     6 iterations: 
 Largest element of residual vector :  0.11949783E-02.
 Largest element of DIIS residual   :  0.51476864E-03.
 Convergence information after     7 iterations: 
 Largest element of residual vector :  0.50845749E-03.
 Largest element of DIIS residual   : -0.19223940E-03.
 Convergence information after     8 iterations: 
 Largest element of residual vector :  0.12136907E-03.
 Largest element of DIIS residual   :  0.90713458E-04.
 Convergence information after     9 iterations: 
 Largest element of residual vector :  0.55065505E-04.
 Largest element of DIIS residual   : -0.16680797E-04.
 Convergence information after    10 iterations: 
 Largest element of residual vector : -0.14265645E-04.
 Largest element of DIIS residual   : -0.63646662E-05.
 Convergence information after    11 iterations: 
 Largest element of residual vector : -0.35163092E-05.
 Largest element of DIIS residual   : -0.25917032E-05.
 Convergence information after    12 iterations: 
 Largest element of residual vector : -0.21840153E-05.
 Largest element of DIIS residual   : -0.16755419E-05.
 Convergence information after    13 iterations: 
 Largest element of residual vector : -0.13136336E-05.
 Largest element of DIIS residual   : -0.12098381E-05.
 Convergence information after    14 iterations: 
 Largest element of residual vector : -0.10170622E-05.
 Largest element of DIIS residual   : -0.82901044E-06.
 Convergence information after    15 iterations: 
 Largest element of residual vector : -0.61583230E-06.
 Largest element of DIIS residual   : -0.43668056E-06.
 Convergence information after    16 iterations: 
 Largest element of residual vector : -0.35460259E-06.
 Largest element of DIIS residual   : -0.18485148E-06.
 Convergence information after    17 iterations: 
 Largest element of residual vector : -0.13136759E-06.
 Largest element of DIIS residual   :  0.50935672E-07.
 Perturbed Lambda equations converged in    17 iterations.
  Dominant contributions to perturbed wavefunction:
    7    7  140   28   0.2196646446 ABAB
    7    7   28  140   0.2196646446 ABAB
    7    7  140   39  -0.1954884254 ABAB
    7    7   39  140  -0.1954884254 ABAB
    7    7  140   54  -0.1536372686 ABAB
    7    7   54  140  -0.1536372686 ABAB
    7    7  140   21  -0.1483740856 ABAB
    7    7   21  140  -0.1483740856 ABAB
    7    7  140   45   0.1386189213 ABAB
    7    7   45  140   0.1386189213 ABAB
    7    6   28   89   0.1365849664 ABAB
    6    7   89   28   0.1365849664 ABAB
    7    6   39   89  -0.1222558530 ABAB
    6    7   89   39  -0.1222558530 ABAB
    7    7  140   57   0.1185950199 ABAB
    7    7   57  140   0.1185950199 ABAB
    7    7  140   20  -0.1158911713 ABAB
    7    7   20  140  -0.1158911713 ABAB
    7    7  140   29  -0.1131982429 ABAB
    7    7   29  140  -0.1131982429 ABAB
        The DBOC first-order density matrix is being calculated 
             (Symmetry block 3, perturbation   2)
 term   3.82764151910596     
 final tnorm  0.840509914759386     
  norm contr. I: |<0|L dT/dx|0>|^2   0.000000000000000E+000
  norm contr. II: <0|[nabla(1+L)e-T][nabla e^T]|0>   3.82764151910596     
  total norm contribution   3.82764151910596     
 oo  7.142401954361435E-003
 vv  -25.4896917059787     
 vo  6.328371318953768E-002
  Correlated perturbed 1-el contribution to DBOC  -25.4192655908348       cm**-1
  SUM_I |dc_I/dx|^2 contribution to DBOC   12.8049871969761       cm**-1
 
 
  The total diagonal Born-Oppenheimer correction (DBOC) is:      0.0038682545 a.u.
  The total diagonal Born-Oppenheimer correction (DBOC) is:        848.983729 cm-1
 
 Total CC energy including DBOC  -113.167826019505     
 First-order density matrix is being calculated  (Symmetry block 3, perturbation   2)
 Calculation of the contributions of <pq||rs> to dI(i,j)/dx required   3.1 seconds.
 Calculation of the contributions of <pq||rs> to dI(a,b)/dx required  16.0 seconds.
 Calculation of the contributions of <pq||rs> to dI(i,a)/dx required   9.6 seconds.
 First-order Z-vector equations are solved for 1 perturbation.
 Convergence reached after  20 iterations.
        U*G(pq,rs) contribution is being calculated
             (Symmetry block 3, perturbation   2)

 CCSD contribution to force constants 

        0.0000000000        0.0000000000        0.0000000000
        0.0000000000        0.0000000000        0.0000000000
        0.0000000000        0.0000000000        0.0000000000
        0.0000000000        0.0000000000        0.0000000000
        0.0000000000        0.0000000000        0.0000000000
        0.0000000000        0.0000000000        0.0000000000
        0.0000000000        0.0000000000        0.0000000000
        0.0000000000        0.0000000000        0.0000000000
        0.0000000000        0.0000000000        0.0000000000
        0.0000000000        0.0000000000        0.0000000000
        0.0000000000        0.0000000000        0.0000000000
        0.0000000000       -0.2866914853        0.2866914853

 CCSD contribution to dipole derivatives 

        0.0000000000        0.0000000000        0.0000000000
        0.0000000000        0.0000000000        0.0000000000
        0.0000000000        0.0000000000        0.0000000000
        0.0000000000        0.0000000000       -0.0549868136
        0.0000000000        0.0000000000        0.0000000000
        0.0000000000        0.0000000000        0.0000000000
 @CHECKOUT-I, Total execution time (CPU/WALL):     1305.86/     468.16 seconds.
--executable xsdcc finished with status     0 in      468.43 seconds (walltime).
 --invoking executable--
/nfs/workspaces/public/cfour_mpi/bin/xanti
 @GETMEM-I,  Allocated    3814 MB of main memory.
 CCSD MO derivative gammas will be sorted to Mulliken order.
 @CHECKOUT-I, Total execution time (CPU/WALL):       13.08/      24.34 seconds.
--executable xanti finished with status     0 in       24.58 seconds (walltime).
 --invoking executable--
/nfs/workspaces/public/cfour_mpi/bin/xbcktrn
 @GETMEM-I,  Allocated    3814 MB of main memory.
 CCSD MO derivative gammas will be transformed to the AO basis.
 @CHECKOUT-I, Total execution time (CPU/WALL):       22.23/       6.40 seconds.
--executable xbcktrn finished with status     0 in        6.47 seconds (walltime).
 --invoking executable--
/nfs/workspaces/public/cfour_mpi/bin/xvdint
 @GETMEM-I,  Allocated    3814 MB of main memory.
 One- and two-electron integral derivatives are calculated
 for RHF-CC/MBPT hessians and dipole derivatives.
 Spherical gaussians are used.
  magnet F F
                    8722  records have been written to the Sort file.
  Total length of Sort file :             178609116  words.
 Evaluation of 2el integral derivatives

                      Two-electron integral gradient
                      ------------------------------

                         C #1 z     0.0000000000
                         O #2 z     0.0000000000


 C #1       0.0000000000           -0.0324952019            0.0000000000
 O #2       0.0000000000            0.0324952019            0.0000000000


 Evaluation of 2e integral derivatives required  344.42 seconds.
  contribution to Hessian
        0.0000000000        0.0000000000        0.0000000000
        0.0000000000       -0.0324952019        0.0324952019
 @CHECKOUT-I, Total execution time (CPU/WALL):      344.41/      72.51 seconds.
--executable xvdint finished with status     0 in       72.72 seconds (walltime).
 --invoking executable--
/nfs/workspaces/public/cfour_mpi/bin/xanti
 @GETMEM-I,  Allocated    3814 MB of main memory.
 CCSD MO gammas will be sorted to Mulliken order.
 @CHECKOUT-I, Total execution time (CPU/WALL):       16.56/      58.14 seconds.
--executable xanti finished with status     0 in       58.30 seconds (walltime).
 --invoking executable--
/nfs/workspaces/public/cfour_mpi/bin/xbcktrn
 @GETMEM-I,  Allocated    3814 MB of main memory.
 CCSD MO gammas will be transformed to the AO basis.
 @CHECKOUT-I, Total execution time (CPU/WALL):       47.36/       8.93 seconds.
--executable xbcktrn finished with status     0 in        9.02 seconds (walltime).
 --invoking executable--
/nfs/workspaces/public/cfour_mpi/bin/xvdint
 @GETMEM-I,  Allocated    3814 MB of main memory.
 One- and two-electron integral derivatives are calculated
 for RHF-CC/MBPT hessians and dipole derivatives.
 Spherical gaussians are used.
  magnet F F

                     Kinetic energy integral gradient
                     --------------------------------

                         C #1 z    -0.7711272863
                         O #2 z     0.7711272863


 C #1       0.0000000000            0.0000000000           -0.7711272863
 O #2       0.0000000000            0.0000000000            0.7711272863



                   Nuclear attraction integral gradient
                   ------------------------------------

                         C #1 z    16.5801268257
                         O #2 z   -16.5801268257


 C #1       0.0000000000            0.0000000000           16.5801268257
 O #2       0.0000000000            0.0000000000          -16.5801268257



                      Reorthonormalization gradient
                      -----------------------------

                         C #1 z     0.0000000000
                         O #2 z     0.0000000000


 C #1       0.0000000000            0.0000000000            0.0000000000
 O #2       0.0000000000            0.0000000000            0.0000000000



                     Kinetic energy integral Hessian
                     -------------------------------


           Symmetry 1

           C #1 z      O #2 z

 C #1 z    0.781361
 O #2 z   -0.781361    0.781361


           Symmetry 2

           C #1 x      O #2 x

 C #1 x   -0.698875
 O #2 x    0.698875   -0.698875


           Symmetry 3

           C #1 y      O #2 y

 C #1 y   -0.698875
 O #2 y    0.698875   -0.698875




           C #1 x      C #1 y      C #1 z      O #2 x      O #2 y      O #2 z

 C #1 x   -0.698875
 C #1 y    0.000000   -0.698875
 C #1 z    0.000000    0.000000    0.781361

 O #2 x    0.698875    0.000000    0.000000   -0.698875
 O #2 y    0.000000    0.698875    0.000000    0.000000   -0.698875
 O #2 z    0.000000    0.000000   -0.781361    0.000000    0.000000    0.781361




                   Nuclear attraction integral Hessian
                   -----------------------------------


           Symmetry 1

           C #1 z      O #2 z

 C #1 z  -10.272690
 O #2 z   10.272690  -10.272690


           Symmetry 2

           C #1 x      O #2 x

 C #1 x   10.432605
 O #2 x  -10.432605   10.432605


           Symmetry 3

           C #1 y      O #2 y

 C #1 y   10.432605
 O #2 y  -10.432605   10.432605




           C #1 x      C #1 y      C #1 z      O #2 x      O #2 y      O #2 z

 C #1 x   10.432605
 C #1 y    0.000000   10.432605
 C #1 z    0.000000    0.000000  -10.272690

 O #2 x  -10.432605    0.000000    0.000000   10.432605
 O #2 y    0.000000  -10.432605    0.000000    0.000000   10.432605
 O #2 z    0.000000    0.000000   10.272690    0.000000    0.000000  -10.272690




                Highest order reorthonormalization Hessian
                ------------------------------------------


           Symmetry 1

           C #1 z      O #2 z

 C #1 z    0.000000
 O #2 z    0.000000    0.000000


           Symmetry 2

           C #1 x      O #2 x

 C #1 x    0.000000
 O #2 x    0.000000    0.000000


           Symmetry 3

           C #1 y      O #2 y

 C #1 y    0.000000
 O #2 y    0.000000    0.000000




           C #1 x      C #1 y      C #1 z      O #2 x      O #2 y      O #2 z




                Electronic contributions to dipole moment
                -----------------------------------------

                               au             Debye

                    z     -0.77111125     -1.95996964

  Conversion factor used: 1 a.u. =   2.54174691 Debye 



   Electronic contributions to static part of dipole moment derivatives
   --------------------------------------------------------------------


                     Total dipole moment derivatives
                     -------------------------------


           Symmetry 1
                              Ez

               C #1 z    -5.61507364
               O #2 z    -8.38492636

           Symmetry 2
                              Ex

               C #1 x    -5.67691947
               O #2 x    -8.32308053

           Symmetry 3
                              Ey

               C #1 y    -5.67691947
               O #2 y    -8.32308053



                       Ex          Ey          Ez

      C #1    x   -5.676919    0.000000    0.000000
      C #1    y    0.000000   -5.676919    0.000000
      C #1    z    0.000000    0.000000   -5.615074

      O #2    x   -8.323081    0.000000    0.000000
      O #2    y    0.000000   -8.323081    0.000000
      O #2    z    0.000000    0.000000   -8.384926

 Evaluation of 1e integral derivatives required    1.70 seconds.
                    8815  records have been written to the Sort file.
  Total length of Sort file :             180513570  words.
 Evaluation of 2el integral derivatives

                      Two-electron integral gradient
                      ------------------------------

                         C #1 z    -8.5510148207
                         O #2 z     8.5510148207


 C #1       0.0000000000            0.0000000000           -8.5510148207
 O #2       0.0000000000            0.0000000000            8.5510148207


 Evaluation of 2e integral derivatives required  694.32 seconds.

                            Molecular gradient
                            ------------------

                         C #1 z     0.6626227622
                         O #2 z    -0.6626227622


 C #1       0.0000000000            0.0000000000            0.6626227622
 O #2       0.0000000000            0.0000000000           -0.6626227622


  Molecular gradient norm 0.937E+00

                            Molecular hessian
                            -----------------


           Symmetry 1

           C #1 z      O #2 z

 C #1 z   28.335867
 O #2 z  -28.335867   28.335867


           Symmetry 2

           C #1 x      O #2 x

 C #1 x    0.601864
 O #2 x   -0.601864    0.601864


           Symmetry 3

           C #1 y      O #2 y

 C #1 y    0.601864
 O #2 y   -0.601864    0.601864




           C #1 x      C #1 y      C #1 z      O #2 x      O #2 y      O #2 z

 C #1 x    0.601864
 C #1 y    0.000000    0.601864
 C #1 z    0.000000    0.000000   28.335867

 O #2 x   -0.601864    0.000000    0.000000    0.601864
 O #2 y    0.000000   -0.601864    0.000000    0.000000    0.601864
 O #2 z    0.000000    0.000000  -28.335867    0.000000    0.000000   28.335867




                           Total dipole moment
                           -------------------

                               au             Debye

                    z      0.30756489      0.78175211

  Conversion factor used: 1 a.u. =   2.54174691 Debye 



                     Total dipole moment derivatives
                     -------------------------------


           Symmetry 1
                              Ez

               C #1 z     0.65731152
               O #2 z    -0.65731152

           Symmetry 2
                              Ex

               C #1 x     0.11815702
               O #2 x    -0.11815702

           Symmetry 3
                              Ey

               C #1 y     0.11815702
               O #2 y    -0.11815702



                       Ex          Ey          Ez

      C #1    x    0.118157    0.000000    0.000000
      C #1    y    0.000000    0.118157    0.000000
      C #1    z    0.000000    0.000000    0.657312

      O #2    x   -0.118157    0.000000    0.000000
      O #2    y    0.000000   -0.118157    0.000000
      O #2    z    0.000000    0.000000   -0.657312

 @CHECKOUT-I, Total execution time (CPU/WALL):      696.01/     116.20 seconds.
--executable xvdint finished with status     0 in      116.37 seconds (walltime).
 --invoking executable--
/nfs/workspaces/public/cfour_mpi/bin/xjoda
  @GTFLGS-I, Hessian will be transformed to curvilinear coordinates.
  @GTFLGS-I, Hessian will be transformed to curvilinear coordinates.
  igrd and ihes are                      0                     1
  gradient from JOBARC 
   0.000000000000000   0.000000000000000   0.662622762179366
   0.000000000000000   0.000000000000000  -0.662622762179366
 
  @PROJFCM-I, Projecting force constant matrix onto totally symmetric subspace.
  Largest difference between matrix elements of symmetrized
  and unsymmetrized FCM :    -0.3558486839E-11.
  read isotopes from ZMAT file 
 
  Summary of diagonal Born-Oppenheimer correction at the correlated level
  The total diagonal Born-Oppenheimer correction (DBOC) is:      0.0038682545 a.u.
  The total diagonal Born-Oppenheimer correction (DBOC) is:        848.983729 cm-1
  The total diagonal Born-Oppenheimer correction (DBOC) is:            10.156 kJ/mole
  hellooooooo 
  readis is  F
 
 @CHECKOUT-I, Total execution time (CPU/WALL):        0.01/       0.08 seconds.
--executable xjoda finished with status     0 in        0.17 seconds (walltime).
  The final electronic energy is      -113.167826019505156 a.u. 
  This computation required                         4315.87 seconds (walltime).
