 --invoking executable--
/nfs/workspaces/public/cfour_mpi/bin/xjoda


   *************************************************************************
         <<<     CCCCCC     CCCCCC   |||     CCCCCC     CCCCCC   >>>
       <<<      CCC        CCC       |||    CCC        CCC         >>>
      <<<      CCC        CCC        |||   CCC        CCC            >>>
    <<<        CCC        CCC        |||   CCC        CCC              >>>
      <<<      CCC        CCC        |||   CCC        CCC            >>>
       <<<      CCC        CCC       |||    CCC        CCC         >>>
         <<<     CCCCCC     CCCCCC   |||     CCCCCC     CCCCCC   >>>
   *************************************************************************

     ****************************************************************
     * CFOUR Coupled-Cluster techniques for Computational Chemistry *
     ****************************************************************
 

   Department of Chemistry                Institut fuer Physikalische Chemie
   University of Florida                  Universitaet Mainz
   Gainesville, FL 32611, USA             D-55099 Mainz, Germany

   Department of Chemistry                Fakultaet fuer Chemie und Biowiss.
   Johns Hopkins University               Karlsruher Institut fuer Technologie
   Baltimore, MD 21218, USA               D-76131 Karlsruhe, Germany

   Department of Chemistry                Department of Physical Chemistry
   Southern Methodist University          Eotvos Lorand University
   Dallas, TX 75275, USA                  H-1053 Budapest, Hungary

 
                       Version 2.1
 
                     vincent.theory.phys.ucl.ac.uk                     
                     Sun  2 Mar 07:13:16 GMT 2025                      
                     integer*8 version is running
 
********************************************************************************
*                          Input from ZMAT file                                *
********************************************************************************
Carbon Monoxide DBOC calculation                                                
C                                                                               
O 1 r                                                                           
                                                                                
r=1.2413793103448276                                                            
                                                                                
                                                                                
*CFOUR(CALC=CCSD,BASIS=AUG-PCVQZ,SCF_CONV=10                                    
CC_CONV=14,DBOC=ON,MEMORY=500000000                                             
ZFIELD=-200)                                                                    
                                                                                
%isotopes                                                                       
12                                                                              
18                                                                              
********************************************************************************
  @GTFLGS-I, Hessian will be transformed to curvilinear coordinates.
    -------------------------------------------------------------------
                    CFOUR Control Parameters 
    -------------------------------------------------------------------
        External           Internal           Value            Units
          Name               Name
    -------------------------------------------------------------------
       ABCDTYPE             IABCDT         STANDARD    [  0]    ***   
       ANHARMONIC           IANHAR         OFF         [  0]    ***   
       ANH_ALGORIT          IANALG         STANDARD    [  0]    ***   
       ANH_DERIVAT          IANDER         SECOND      [  1]    ***   
       ANH_MODE             ANHMOD         VIBRATION   [  0]    ***   
       ANH_STEPSIZ          ICUBST             50000          x 10-6  
       ANH_SYMMETR          IANHSM         ABELIAN     [  0]    ***   
       AO_LADDERS           IAOLAD         SINGLEPASS  [  1]    ***   
       AV_SCF               IAVSCF         OFF         [  0]    ***   
       BASIS                IBASIS         AUG-PCVQZ   [ 52]    ***   
       BOTHVECTORS          BOTHVC         OFF         [  0]    ***   
       BOX_POTENT           IPIAB          OFF         [  0]    ***   
       BREIT                IBREIT         OFF         [  0]    ***   
       BRUCK_CONV           IBRTOL          10D-  4             ***   
       BRUECKNER            IBRKNR         OFF         [  0]    ***   
       BUFFERSIZE           IBUFFS              4096            ***   
       CACHE_RECS           ICHREC             10               ***   
       CALCLEVEL            ICLLVL         CCSD        [ 10]    ***   
       CCORBOPT             ICCORB         OFF         [  0]  x 0.01  
       CC_CONV              ICCCNV          10D- 14             ***   
       CC_EXPORDER          ICCEOR              5               ***   
       CC_EXTRAPOL          ICCEXT         DIIS        [  1]    ***   
       CC_GUESS             ICCGES         MP2         [  0]    ***   
       CC_MAXCYC            ICCCYC            100              cycles 
       CC_PROGRAM           ICCPRO         VCC         [  0]    ***   
       CHARGE               ICHRGE              0               ***   
       CHOLESKY             ICHOLE         OFF         [  0]    ***   
       CIS_CONV             ICISTL              5               ***   
       COMM_SIZE            IPSIZE            ***               ***   
       CONSTANT             ICONST         OLD         [  1]    ***   
       CONTINUUM            ICONTU         NONE        [  0]    ***   
       CONTRACTION          ICNTYP         GENERAL     [  1]    ***   
       COORDINATES          ICOORD         INTERNAL    [  0]    ***   
       CPHF_CONVER          ICPHFT          10D- 16             ***   
       CPHF_MAXCYC          ICPHFC             64              cycles 
       CUBIC                ICUBIC         OFF         [  0]    ***   
       CURVILINEAR          ICURVY         ON          [  1]    ***   
       DBOC                 IDBOC          ON          [  1]    ***   
       DCT                  IDCT           OFF         [  0]    ***   
       DERIV_LEV            IDRLVL         SECOND      [  2]    ***   
       DEVMEM_SIZE          IDVMEM          50000000           MByte  
       DIAG_MRCC            IEOMST          10D-  0             ***   
       DIFF_TYPE            IDIFTY         RELAXED     [  0]    ***   
       DIRECT               IDIRCT         OFF         [  0]    ***   
       DROPMO               IDRPMO      NONE         
       ECP                  IECP           OFF         [  0]    ***   
       EIGENVECTOR          IVEC                1               ***   
       EL_ANHARM            IELANH         OFF         [  0]    ***   
       EOMFOLLOW            IEOMSR         ENERGY      [  0]    ***   
       EOMIP                IEOMIP         OFF         [  0]    ***   
       EOMLEVEL             HBARFM         SAME        [  0]    ***   
       EOM_MRCC             IMRCCE         NEW         [  1]    ***   
       EOM_NONIT            EOMNON         OFF         [  0]    ***   
       EOM_NSING            IEOMSI          10D-  0             ***   
       EOM_NSTATES          IMRCCD         DAVIDSON    [  0]    ***   
       EOM_NTRIP            IEOMTR          10D-  0             ***   
       EOM_ORDER            IEXORD         ENERGY      [  0]    ***   
       EOM_PROPSTA          IEOMST              0               ***   
       ESTATE_CONV          IEXTOL          10D-  5             ***   
       ESTATE_DIAG          IEXDIG         ITERATIVE   [  0]    ***   
       ESTATE_LOCK          IESLOC         ON          [  1]    ***   
       ESTATE_MAXC          IEXMXC             40               ***   
       ESTATE_PROP          IEXPRP         OFF         [  0]    ***   
       EVAL_HESS            IRECAL              0            # of cyc.
       EXCITATION           IEXCIT              0               ***   
       EXCITE               IEXCIT         NONE        [  0]    ***   
       EXTERN_POT           IEXPOT         OFF         [  0]    ***   
       FCGRADNEW            IFCGNW         OFF         [  0]    ***   
       FC_FIELD             IFINFC              0             x 10-6  
       FD_CALTYPE           IFDCAL         GRADONLY    [  0]    ***   
       FD_PROJECT           IFDPRJ         OFF         [  1]    ***   
       FD_STEPSIZE          IDISFD              0            10-4 bohr
       FD_USEGROUP          IFDGRP         FULL        [  0]    ***   
       FILE_RECSIZ          IFLREC              4096           words  
       FINITE_PERT          IFIPER              0             x 10-6  
       FIXGEOM              IFIXGM         OFF         [  0]    ***   
       FOCK                 IFOCK          AO          [  1]    ***   
       FREQ_ALGORI          IVIALG         STANDARD    [  0]    ***   
       FROZEN_CORE          IFROCO         OFF         [  0]    ***   
       GAMMA_ABCD           IGABCD         STORE       [  0]    ***   
       GAMMA_ABCI           IGABCI         STORE       [  0]    ***   
       GENBAS_1             IGNBS1              0               ***   
       GENBAS_2             IGNBS2              0               ***   
       GENBAS_3             IGNBS3              0               ***   
       GENBAS_4             IGNBS4              0               ***   
       GEO_CONV             ICONTL              5              H/bohr 
       GEO_MAXCYC           IOPTCY             50               ***   
       GEO_MAXSTEP          IMXSTP            300            millibohr
       GEO_METHOD           INR            SINGLE_POINT[  5]    ***   
       GIAO                 IGIAO          OFF         [  1]    ***   
       GIMIC                IGIMIC         OFF         [  0]    ***   
       GRID                 IGRID          OFF         [  0]    ***   
       GRID_ALGO            IGALGO         SERIAL      [  0]    ***   
       GUESS                IGUESS         MOREAD      [  0]    ***   
       HBAR                 IHBAR          OFF         [  0]    ***   
       HESS_TYPE            IHESTP         SCF         [  0]    ***   
       HF2_FILE             IHF2Fl         USE         [  1]    ***   
       HFSTABILITY          ISTABL         OFF         [  0]    ***   
       INCORE               INCORE         OFF         [  0]    ***   
       INPUT_MRCC           IMRCC          ON          [  1]    ***   
       INTEGRALS            INTTYP         VMOL        [  1]    ***   
       JODA_PRINT           IJPRNT              0               ***   
       KEYWORD_OUT          IDMPKW         NO          [  0]    ***   
       LINDEP_TOL           ILINDP              8               ***   
       LINEQ_CONV           IZTACN          10D-  7           cycles  
       LINEQ_EXPOR          ILMAXD              5               ***   
       LINEQ_MAXCY          ILMAXC            100               ***   
       LINEQ_TYPE           ILTYPE         DIIS        [  1]    ***   
       LOCK_ORBOCC          ILOCOC         OFF         [  0]    ***   
       MEMORY_SIZE          IMEMSZ         500000000           words  
       MEM_UNIT             IMEMU          INTEGERWORDS[  0]    ***   
       MRCC                 IMRCCC         OFF         [  0]    ***   
       MULTIPLICTY          IMULTP              1               ***   
       NACOUPLING           IVCOUP         OFF         [  0]    ***   
       NEGEVAL              IDIE           ABORT       [  0]    ***   
       NEWNORM              INEWNO         OFF         [  0]    ***   
       NON-HF               INONHF         OFF         [  0]    ***   
       NTOP_TAMP            ITOPT2             15               ***   
       NUC_MODEL            INUCMO         POINT       [  0]    ***   
       OCCUPATION           IOCCU   ESTIMATED BY SCF 
       OPEN-SHELL           IOPEN          SPIN-ORBITAL[  0]    ***   
       OPTVIB               IOPTVB         OFF         [  0]    ***   
       ORBITALS             IORBTP         STANDARD    [  0]    ***   
       PARALLEL             IPARAL         ON          [  1]    ***   
       PARA_INT             IPINTS         ON          [  1]    ***   
       PARA_PRINT           IPPRIN              0               ***   
       PERT_ORB             IPTORB         STANDARD    [  0]    ***   
       POINTS               IGRDFD              0               ***   
       PRINT                IPRNT               0               ***   
       PROPS                IPROPS         OFF         [  0]    ***   
       PROP_INTEGR          IINTYP         INTERNAL    [  0]    ***   
       PSI                  IPSI           OFF         [  0]    ***   
       QC_ALG               IQCALG         FLM         [  0]    ***   
       QC_LINALG            IQCLIN         TRIDIAG     [  2]    ***   
       QC_MAXCYC            IQCMAX          10D-100           cycles  
       QC_MAXSCFCY          IQCMSC          10D- 15           cycles  
       QC_RTRUST            IQCRTR          10D-  0           x 10-3  
       QC_SKIPSCF           IQCSKI         OFF         [  0]    ***   
       QC_START             IQCSTA          10D-  1             ***   
       QRHFGUESS            IQGUES         OFF         [  0]    ***   
       QUARTIC              IQUART         OFF         [  0]    ***   
       RAMAN_INT            IRAMIN         OFF         [  0]    ***   
       RAMAN_ORB            IRAMRE         UNRELAXED   [  0]    ***   
       RDO                  IRDOFM         ON          [  1]    ***   
       REDUCE_REPR          REDREP         Ir          [  0]    ***   
       REFERENCE            IREFNC         RHF         [  0]    ***   
       RELATIVIST           IRELAT         OFF         [  0]    ***   
       RELAX_DENS           IRDENS         ON          [  1]    ***   
       RESET_FLAGS          IRESET         OFF         [  0]    ***   
       RESTART_CC           ICCRES         OFF         [  0]    ***   
       ROT_EVEC             ROTVEC              0               ***   
       SAVE_INTS            ISVINT         OFF         [  0]    ***   
       SCALE_ON             ISTCRT              0               ***   
       SCF_CONV             ISCFCV          10D- 10             ***   
       SCF_DAMPING          IDAMP               0             x 10-3  
       SCF_EXPORDE          IRPPOR              6               ***   
       SCF_EXPSTAR          IRPPLS              8               ***   
       SCF_EXTRAPO          IRPP           ON          [  1]    ***   
       SCF_MAXCYC           ISCFCY            150              cycles 
       SCF_NOSTOP           ISCFST         OFF         [  0]    ***   
       SCF_PRINT            ISCFPR              0               ***   
       SCF_PROG             ISCFPR         SCF         [  0]    ***   
       SD_FIELD             IFINSD              0             x 10-6  
       SOPERT               IPERSO         OFF         [  0]    ***   
       SPHERICAL            IDFGHI         ON          [  1]    ***   
       SPINORBIT            ISOCAL         OFF         [  0]    ***   
       SPINROTATIO          ISRCON         OFF         [  0]    ***   
       SPIN_FLIP            ISPFLP         OFF         [  0]    ***   
       SPIN_ORBIT           ISPORB         OFF         [  0]    ***   
       SPIN_SCAL            ISCSMP         OFF         [  0]    ***   
       STEEPSCALE           ISTPSC              1000          x 10-3  
       SUBGROUP             ISUBGP         DEFAULT     [  0]    ***   
       SUBGRPAXIS           ISBXYZ         X           [  0]    ***   
       SYMMETRY             ISYM           ON          [  0]    ***   
       SYM_CHECK            ISYMCK         OVERRIDE    [  1]    ***   
       T3_EXTRAPOL          IT3EXT         OFF         [  0]    ***   
       T4_EXTRAPOL          IT4EXP         OFF         [  0]    ***   
       TAMP_SUM             IEVERY              5               ***   
       TESTSUITE            ITESTS         OFF         [  0]    ***   
       THERMOCH             ITHERM         OFF         [  0]    ***   
       TOL_CHOLESK          ITOLCH          10D-  4             ***   
       TRANGRAD             IRESRM         OFF         [  0]    ***   
       TRANS_INV            ITRAIN         IGNORE      [  1]    ***   
       TREAT_PERT           ITREAT         SIMULTANEOUS[  0]    ***   
       TRIP_ALGORI          ITRALG         NORMAL      [  0]    ***   
       UIJ_THRESHO          IUIJTH              1               ***   
       UNITS                IUNITS         ANGSTROM    [  0]    ***   
       UNOS                 IUNOS          OFF         [  0]    ***   
       UPDATE_HESS          IHUPDT         ON          [  1]    ***   
       VIBPHASE             ISETPH         STANDARD    [  0]    ***   
       VIBRATION            IVIB           ANALYTIC    [  1]    ***   
       VIB_ALGORIT          IGEALG         STANDARD    [  0]    ***   
       VNATORB              IVNORB         OFF         [  0]    ***   
       VTRAN                IVTRAN         FULL/PARTIAL[  0]    ***   
       XFIELD               IXEFLD              0             x 10-6  
       XFORM_TOL            IXFTOL          10D- 11             ***   
       YFIELD               IYEFLD              0             x 10-6  
       ZFIELD               IZEFLD            ***             x 10-6  
       ZSCALE_EXP           IZEXPS         OFF         [  0]    ***   
    -------------------------------------------------------------------
   2 entries found in Z-matrix 
   Job Title : Carbon Monoxide DBOC calculation                                                
   There are  1 unique internal coordinates.
   Of these,  0 will be optimized.
   User supplied Z-matrix: 
--------------------------------------------------------------------------------
       SYMBOL    BOND      LENGTH    ANGLE     ANGLE     DIHED     ANGLE
                  TO      (ANGST)    WRT      (DEG)      WRT      (DEG)
--------------------------------------------------------------------------------
        C    
        O          1         r    
                  *Initial values for internal coordinates* 
                      Name             Value
                        r               1.2413793103
--------------------------------------------------------------------------------
  read isotopes from ZMAT file 
   Rotational constants (in cm-1): 
          1.5193686364             1.5193686364
   Rotational constants (in MHz): 
      45549.5321933989         45549.5321933989
********************************************************************************
   The full molecular point group is CXv .
   The largest Abelian subgroup of the full molecular point group is C2v .
   The computational point group is C2v .
********************************************************************************
--------------------------------------------------------------------------------
   Analysis of internal coordinates specified by Z-matrix 
--------------------------------------------------------------------------------
   *The nuclear repulsion energy is   20.461514533333329 a.u.
   *There is   1 degree of freedom within the tot. symm. molecular subspace.
   *Z-matrix requests optimization of   0 coordinates.
   *The optimization is constrained.
   *The following   1 parameters can have non-zero 
    derivatives within the totally symmetric subspace:
             r    [ 1]
   *The following   0 parameters are to be optimized:

   *The following coordinates must be varied in an  unconstrained optimization.
             r    [ 1]
--------------------------------------------------------------------------------


 ----------------------------------------------------------------
         Coordinates used in calculation (QCOMP) 
 ----------------------------------------------------------------
 Z-matrix   Atomic            Coordinates (in bohr)
  Symbol    Number           X              Y              Z
 ----------------------------------------------------------------
     C         6        -0.00000000     0.00000000     1.40749418
     O         8         0.00000000     0.00000000    -0.93837323
 ----------------------------------------------------------------
 
   Interatomic distance matrix (Angstroms) 
 
                 C             O    
                [ 1]        [ 2]
  C    [ 1]     0.00000
  O    [ 2]     1.24138     0.00000
 rotcon2
   Rotational constants (in cm-1): 
          1.5193686364             0.0000000000
   Rotational constants (in MHz): 
      45549.5321933989             0.0000000000
  ECPDATA file not present.   Using default ECPDATA. 
  @GTFLGS-I, Hessian will be transformed to curvilinear coordinates.
  There are  218 basis functions.
 @CHECKOUT-I, Total execution time (CPU/WALL):        0.15/       0.22 seconds.
--executable xjoda finished with status     0 in        0.26 seconds (walltime).
 --invoking executable--
/nfs/workspaces/public/cfour_mpi/bin/xvmol
 SERIAL VERSION OF MOLECULE STARTED
********************************************************************************
                    INPUT FROM MOL FILE
********************************************************************************
INTGRL        1    0    1    0    0    0    0    0    0                         
         *** CFOUR Program System (Release V0.1) ***                            
Carbon Monoxide DBOC calculation                                                
    2    2 X  Y       0.10E-08              0    0                              
   9999.00      3.00                                                            
          6.00000000    1    5    1    1    1    1    1                         
C #1  -0.000000000000000   0.000000000000000   1.407494177913422                
   16    9                                                                      
   33980.0000000000       9.100000000000000E-005 -1.900000000000000E-005        
  0.000000000000000E+000  0.000000000000000E+000  0.000000000000000E+000        
  0.000000000000000E+000  0.000000000000000E+000  0.000000000000000E+000        
  0.000000000000000E+000                                                        
   5089.00000000000       7.040000000000000E-004 -1.510000000000000E-004        
  0.000000000000000E+000  0.000000000000000E+000  0.000000000000000E+000        
  0.000000000000000E+000  0.000000000000000E+000  0.000000000000000E+000        
  0.000000000000000E+000                                                        
   1157.00000000000       3.693000000000000E-003 -7.850000000000000E-004        
  0.000000000000000E+000  0.000000000000000E+000  0.000000000000000E+000        
  0.000000000000000E+000  0.000000000000000E+000  0.000000000000000E+000        
  0.000000000000000E+000                                                        
   326.600000000000       1.536000000000000E-002 -3.324000000000000E-003        
  0.000000000000000E+000  0.000000000000000E+000  0.000000000000000E+000        
  0.000000000000000E+000  0.000000000000000E+000  0.000000000000000E+000        
  0.000000000000000E+000                                                        
   106.100000000000       5.292900000000000E-002 -1.151200000000000E-002        
  0.000000000000000E+000  0.000000000000000E+000  0.000000000000000E+000        
  0.000000000000000E+000  0.000000000000000E+000  0.000000000000000E+000        
  0.000000000000000E+000                                                        
   38.1100000000000       0.147043000000000      -3.416000000000000E-002        
  0.000000000000000E+000  0.000000000000000E+000  0.000000000000000E+000        
  0.000000000000000E+000  0.000000000000000E+000  0.000000000000000E+000        
  0.000000000000000E+000                                                        
   14.7500000000000       0.305631000000000      -7.717300000000001E-002        
  0.000000000000000E+000  0.000000000000000E+000  0.000000000000000E+000        
  0.000000000000000E+000  0.000000000000000E+000  0.000000000000000E+000        
  0.000000000000000E+000                                                        
   6.03500000000000       0.399345000000000      -0.141493000000000             
  0.000000000000000E+000  0.000000000000000E+000  0.000000000000000E+000        
  0.000000000000000E+000  0.000000000000000E+000  0.000000000000000E+000        
  0.000000000000000E+000                                                        
   2.53000000000000       0.217051000000000      -0.118019000000000             
  0.000000000000000E+000  0.000000000000000E+000  0.000000000000000E+000        
  0.000000000000000E+000  0.000000000000000E+000  0.000000000000000E+000        
  0.000000000000000E+000                                                        
  0.735500000000000       1.589400000000000E-002  0.273806000000000             
   1.00000000000000       0.000000000000000E+000  0.000000000000000E+000        
  0.000000000000000E+000  0.000000000000000E+000  0.000000000000000E+000        
  0.000000000000000E+000                                                        
  0.290500000000000      -3.084000000000000E-003  0.586510000000000             
  0.000000000000000E+000   1.00000000000000       0.000000000000000E+000        
  0.000000000000000E+000  0.000000000000000E+000  0.000000000000000E+000        
  0.000000000000000E+000                                                        
  0.111100000000000       9.779999999999999E-004  0.285430000000000             
  0.000000000000000E+000  0.000000000000000E+000   1.00000000000000             
  0.000000000000000E+000  0.000000000000000E+000  0.000000000000000E+000        
  0.000000000000000E+000                                                        
   7.21600000000000       0.000000000000000E+000  0.000000000000000E+000        
  0.000000000000000E+000  0.000000000000000E+000  0.000000000000000E+000        
   1.00000000000000       0.000000000000000E+000  0.000000000000000E+000        
  0.000000000000000E+000                                                        
   19.5700000000000       0.000000000000000E+000  0.000000000000000E+000        
  0.000000000000000E+000  0.000000000000000E+000  0.000000000000000E+000        
  0.000000000000000E+000   1.00000000000000       0.000000000000000E+000        
  0.000000000000000E+000                                                        
   53.0730000000000       0.000000000000000E+000  0.000000000000000E+000        
  0.000000000000000E+000  0.000000000000000E+000  0.000000000000000E+000        
  0.000000000000000E+000  0.000000000000000E+000   1.00000000000000             
  0.000000000000000E+000                                                        
  4.145000000000000E-002  0.000000000000000E+000  0.000000000000000E+000        
  0.000000000000000E+000  0.000000000000000E+000  0.000000000000000E+000        
  0.000000000000000E+000  0.000000000000000E+000  0.000000000000000E+000        
   1.00000000000000                                                             
   10    8                                                                      
   34.5100000000000       5.378000000000000E-003  0.000000000000000E+000        
  0.000000000000000E+000  0.000000000000000E+000  0.000000000000000E+000        
  0.000000000000000E+000  0.000000000000000E+000  0.000000000000000E+000        
   7.91500000000000       3.613200000000000E-002  0.000000000000000E+000        
  0.000000000000000E+000  0.000000000000000E+000  0.000000000000000E+000        
  0.000000000000000E+000  0.000000000000000E+000  0.000000000000000E+000        
   2.36800000000000       0.142493000000000       0.000000000000000E+000        
  0.000000000000000E+000  0.000000000000000E+000  0.000000000000000E+000        
  0.000000000000000E+000  0.000000000000000E+000  0.000000000000000E+000        
  0.813200000000000       0.342150000000000        1.00000000000000             
  0.000000000000000E+000  0.000000000000000E+000  0.000000000000000E+000        
  0.000000000000000E+000  0.000000000000000E+000  0.000000000000000E+000        
  0.289000000000000       0.463864000000000       0.000000000000000E+000        
   1.00000000000000       0.000000000000000E+000  0.000000000000000E+000        
  0.000000000000000E+000  0.000000000000000E+000  0.000000000000000E+000        
  0.100700000000000       0.250028000000000       0.000000000000000E+000        
  0.000000000000000E+000   1.00000000000000       0.000000000000000E+000        
  0.000000000000000E+000  0.000000000000000E+000  0.000000000000000E+000        
   8.18200000000000       0.000000000000000E+000  0.000000000000000E+000        
  0.000000000000000E+000  0.000000000000000E+000   1.00000000000000             
  0.000000000000000E+000  0.000000000000000E+000  0.000000000000000E+000        
   24.1860000000000       0.000000000000000E+000  0.000000000000000E+000        
  0.000000000000000E+000  0.000000000000000E+000  0.000000000000000E+000        
   1.00000000000000       0.000000000000000E+000  0.000000000000000E+000        
   71.4940000000000       0.000000000000000E+000  0.000000000000000E+000        
  0.000000000000000E+000  0.000000000000000E+000  0.000000000000000E+000        
  0.000000000000000E+000   1.00000000000000       0.000000000000000E+000        
  3.218000000000000E-002  0.000000000000000E+000  0.000000000000000E+000        
  0.000000000000000E+000  0.000000000000000E+000  0.000000000000000E+000        
  0.000000000000000E+000  0.000000000000000E+000   1.00000000000000             
    6    6                                                                      
   1.84800000000000        1.00000000000000       0.000000000000000E+000        
  0.000000000000000E+000  0.000000000000000E+000  0.000000000000000E+000        
  0.000000000000000E+000                                                        
  0.649000000000000       0.000000000000000E+000   1.00000000000000             
  0.000000000000000E+000  0.000000000000000E+000  0.000000000000000E+000        
  0.000000000000000E+000                                                        
  0.228000000000000       0.000000000000000E+000  0.000000000000000E+000        
   1.00000000000000       0.000000000000000E+000  0.000000000000000E+000        
  0.000000000000000E+000                                                        
   8.65600000000000       0.000000000000000E+000  0.000000000000000E+000        
  0.000000000000000E+000   1.00000000000000       0.000000000000000E+000        
  0.000000000000000E+000                                                        
   33.2130000000000       0.000000000000000E+000  0.000000000000000E+000        
  0.000000000000000E+000  0.000000000000000E+000   1.00000000000000             
  0.000000000000000E+000                                                        
  7.660000000000000E-002  0.000000000000000E+000  0.000000000000000E+000        
  0.000000000000000E+000  0.000000000000000E+000  0.000000000000000E+000        
   1.00000000000000                                                             
    4    4                                                                      
   1.41900000000000        1.00000000000000       0.000000000000000E+000        
  0.000000000000000E+000  0.000000000000000E+000                                
  0.485000000000000       0.000000000000000E+000   1.00000000000000             
  0.000000000000000E+000  0.000000000000000E+000                                
   24.6940000000000       0.000000000000000E+000  0.000000000000000E+000        
   1.00000000000000       0.000000000000000E+000                                
  0.187000000000000       0.000000000000000E+000  0.000000000000000E+000        
  0.000000000000000E+000   1.00000000000000                                     
    2    2                                                                      
   1.01100000000000        1.00000000000000       0.000000000000000E+000        
  0.424000000000000       0.000000000000000E+000   1.00000000000000             
          8.00000000    1    5    1    1    1    1    1                         
O #2   0.000000000000000   0.000000000000000  -0.938373227053323                
   16    9                                                                      
   61420.0000000000       9.000000000000001E-005 -2.000000000000000E-005        
  0.000000000000000E+000  0.000000000000000E+000  0.000000000000000E+000        
  0.000000000000000E+000  0.000000000000000E+000  0.000000000000000E+000        
  0.000000000000000E+000                                                        
   9199.00000000000       6.980000000000001E-004 -1.590000000000000E-004        
  0.000000000000000E+000  0.000000000000000E+000  0.000000000000000E+000        
  0.000000000000000E+000  0.000000000000000E+000  0.000000000000000E+000        
  0.000000000000000E+000                                                        
   2091.00000000000       3.664000000000000E-003 -8.290000000000000E-004        
  0.000000000000000E+000  0.000000000000000E+000  0.000000000000000E+000        
  0.000000000000000E+000  0.000000000000000E+000  0.000000000000000E+000        
  0.000000000000000E+000                                                        
   590.900000000000       1.521800000000000E-002 -3.508000000000000E-003        
  0.000000000000000E+000  0.000000000000000E+000  0.000000000000000E+000        
  0.000000000000000E+000  0.000000000000000E+000  0.000000000000000E+000        
  0.000000000000000E+000                                                        
   192.300000000000       5.242300000000000E-002 -1.215600000000000E-002        
  0.000000000000000E+000  0.000000000000000E+000  0.000000000000000E+000        
  0.000000000000000E+000  0.000000000000000E+000  0.000000000000000E+000        
  0.000000000000000E+000                                                        
   69.3200000000000       0.145921000000000      -3.626100000000000E-002        
  0.000000000000000E+000  0.000000000000000E+000  0.000000000000000E+000        
  0.000000000000000E+000  0.000000000000000E+000  0.000000000000000E+000        
  0.000000000000000E+000                                                        
   26.9700000000000       0.305258000000000      -8.299200000000000E-002        
  0.000000000000000E+000  0.000000000000000E+000  0.000000000000000E+000        
  0.000000000000000E+000  0.000000000000000E+000  0.000000000000000E+000        
  0.000000000000000E+000                                                        
   11.1000000000000       0.398508000000000      -0.152090000000000             
  0.000000000000000E+000  0.000000000000000E+000  0.000000000000000E+000        
  0.000000000000000E+000  0.000000000000000E+000  0.000000000000000E+000        
  0.000000000000000E+000                                                        
   4.68200000000000       0.216980000000000      -0.115331000000000             
  0.000000000000000E+000  0.000000000000000E+000  0.000000000000000E+000        
  0.000000000000000E+000  0.000000000000000E+000  0.000000000000000E+000        
  0.000000000000000E+000                                                        
   1.42800000000000       1.759400000000000E-002  0.288979000000000             
   1.00000000000000       0.000000000000000E+000  0.000000000000000E+000        
  0.000000000000000E+000  0.000000000000000E+000  0.000000000000000E+000        
  0.000000000000000E+000                                                        
  0.554700000000000      -2.502000000000000E-003  0.586128000000000             
  0.000000000000000E+000   1.00000000000000       0.000000000000000E+000        
  0.000000000000000E+000  0.000000000000000E+000  0.000000000000000E+000        
  0.000000000000000E+000                                                        
  0.206700000000000       9.540000000000000E-004  0.277624000000000             
  0.000000000000000E+000  0.000000000000000E+000   1.00000000000000             
  0.000000000000000E+000  0.000000000000000E+000  0.000000000000000E+000        
  0.000000000000000E+000                                                        
   12.9740000000000       0.000000000000000E+000  0.000000000000000E+000        
  0.000000000000000E+000  0.000000000000000E+000  0.000000000000000E+000        
   1.00000000000000       0.000000000000000E+000  0.000000000000000E+000        
  0.000000000000000E+000                                                        
   34.9000000000000       0.000000000000000E+000  0.000000000000000E+000        
  0.000000000000000E+000  0.000000000000000E+000  0.000000000000000E+000        
  0.000000000000000E+000   1.00000000000000       0.000000000000000E+000        
  0.000000000000000E+000                                                        
   93.8810000000000       0.000000000000000E+000  0.000000000000000E+000        
  0.000000000000000E+000  0.000000000000000E+000  0.000000000000000E+000        
  0.000000000000000E+000  0.000000000000000E+000   1.00000000000000             
  0.000000000000000E+000                                                        
  6.959000000000000E-002  0.000000000000000E+000  0.000000000000000E+000        
  0.000000000000000E+000  0.000000000000000E+000  0.000000000000000E+000        
  0.000000000000000E+000  0.000000000000000E+000  0.000000000000000E+000        
   1.00000000000000                                                             
   10    8                                                                      
   63.4200000000000       6.044000000000000E-003  0.000000000000000E+000        
  0.000000000000000E+000  0.000000000000000E+000  0.000000000000000E+000        
  0.000000000000000E+000  0.000000000000000E+000  0.000000000000000E+000        
   14.6600000000000       4.179900000000000E-002  0.000000000000000E+000        
  0.000000000000000E+000  0.000000000000000E+000  0.000000000000000E+000        
  0.000000000000000E+000  0.000000000000000E+000  0.000000000000000E+000        
   4.45900000000000       0.161143000000000       0.000000000000000E+000        
  0.000000000000000E+000  0.000000000000000E+000  0.000000000000000E+000        
  0.000000000000000E+000  0.000000000000000E+000  0.000000000000000E+000        
   1.53100000000000       0.356731000000000        1.00000000000000             
  0.000000000000000E+000  0.000000000000000E+000  0.000000000000000E+000        
  0.000000000000000E+000  0.000000000000000E+000  0.000000000000000E+000        
  0.530200000000000       0.448309000000000       0.000000000000000E+000        
   1.00000000000000       0.000000000000000E+000  0.000000000000000E+000        
  0.000000000000000E+000  0.000000000000000E+000  0.000000000000000E+000        
  0.175000000000000       0.244940000000000       0.000000000000000E+000        
  0.000000000000000E+000   1.00000000000000       0.000000000000000E+000        
  0.000000000000000E+000  0.000000000000000E+000  0.000000000000000E+000        
   14.4750000000000       0.000000000000000E+000  0.000000000000000E+000        
  0.000000000000000E+000  0.000000000000000E+000   1.00000000000000             
  0.000000000000000E+000  0.000000000000000E+000  0.000000000000000E+000        
   42.7300000000000       0.000000000000000E+000  0.000000000000000E+000        
  0.000000000000000E+000  0.000000000000000E+000  0.000000000000000E+000        
   1.00000000000000       0.000000000000000E+000  0.000000000000000E+000        
   126.140000000000       0.000000000000000E+000  0.000000000000000E+000        
  0.000000000000000E+000  0.000000000000000E+000  0.000000000000000E+000        
  0.000000000000000E+000   1.00000000000000       0.000000000000000E+000        
  5.348000000000000E-002  0.000000000000000E+000  0.000000000000000E+000        
  0.000000000000000E+000  0.000000000000000E+000  0.000000000000000E+000        
  0.000000000000000E+000  0.000000000000000E+000   1.00000000000000             
    6    6                                                                      
   3.77500000000000        1.00000000000000       0.000000000000000E+000        
  0.000000000000000E+000  0.000000000000000E+000  0.000000000000000E+000        
  0.000000000000000E+000                                                        
   1.30000000000000       0.000000000000000E+000   1.00000000000000             
  0.000000000000000E+000  0.000000000000000E+000  0.000000000000000E+000        
  0.000000000000000E+000                                                        
  0.444000000000000       0.000000000000000E+000  0.000000000000000E+000        
   1.00000000000000       0.000000000000000E+000  0.000000000000000E+000        
  0.000000000000000E+000                                                        
   14.9270000000000       0.000000000000000E+000  0.000000000000000E+000        
  0.000000000000000E+000   1.00000000000000       0.000000000000000E+000        
  0.000000000000000E+000                                                        
   57.5440000000000       0.000000000000000E+000  0.000000000000000E+000        
  0.000000000000000E+000  0.000000000000000E+000   1.00000000000000             
  0.000000000000000E+000                                                        
  0.154000000000000       0.000000000000000E+000  0.000000000000000E+000        
  0.000000000000000E+000  0.000000000000000E+000  0.000000000000000E+000        
   1.00000000000000                                                             
    4    4                                                                      
   2.66600000000000        1.00000000000000       0.000000000000000E+000        
  0.000000000000000E+000  0.000000000000000E+000                                
  0.859000000000000       0.000000000000000E+000   1.00000000000000             
  0.000000000000000E+000  0.000000000000000E+000                                
   26.4830000000000       0.000000000000000E+000  0.000000000000000E+000        
   1.00000000000000       0.000000000000000E+000                                
  0.324000000000000       0.000000000000000E+000  0.000000000000000E+000        
  0.000000000000000E+000   1.00000000000000                                     
    2    2                                                                      
   1.84600000000000        1.00000000000000       0.000000000000000E+000        
  0.714000000000000       0.000000000000000E+000   1.00000000000000             
FINISH                                                                          
 
********************************************************************************
 ONE- AND TWO-ELECTRON INTEGRALS OVER SYMMETRY-ADAPTED AOS ARE CALCULATED.

  SPHERICAL HARMONICS ARE USED.
  
  INTEGRALS LESS THAN  0.10E-13 ARE NEGLECTED.

  NUCLEAR REPULSION ENERGY :   20.4615145333 A.U.
  @MOLECU-I, ONE ELECTRON INTEGRALS (CPU/WALL):        0.05/       0.06 SECONDS.
  @TWOEL-I,    4549285 INTEGRALS OF SYMMETRY TYPE  I I I I
  @TWOEL-I,   19555388 INTEGRALS OF SYMMETRY TYPE  I J I J
  @TWOEL-I,   10304650 INTEGRALS OF SYMMETRY TYPE  I I J J
  @TWOEL-I,   14470983 INTEGRALS OF SYMMETRY TYPE  I J K L
  @TWOEL-I, TOTAL NUMBER OF 2-E INTEGRALS   48880306.
  @MOLECU-I, TWO ELECTRON INTEGRALS (CPU/WALL):      241.00/      32.28 SECONDS.
 @CHECKOUT-I, Total execution time (CPU/WALL):      241.08/      32.35 seconds.

Running with 14 threads/proc

--executable xvmol finished with status     0 in       32.39 seconds (walltime).
 --invoking executable--
/nfs/workspaces/public/cfour_mpi/bin/xvmol2ja
 @GETMEM-I,  Allocated    3814 MB of main memory.
 @CHECKOUT-I, Total execution time (CPU/WALL):        0.12/       0.07 seconds.
--executable xvmol2ja finished with status     0 in        0.11 seconds (walltime).
 --invoking executable--
/nfs/workspaces/public/cfour_mpi/bin/xvprop
 @GETMEM-I,  Allocated    3814 MB of main memory.
   Property integrals will be calculated.
    --------------------------------------------------------------
                                   Property evaluated at 
    Property type                X             Y             Z
    --------------------------------------------------------------
    Dipole moment               ----          ----          ----  
    Quadrupole moment           ----          ----          ----  
    Octopole moment             ----          ----          ----  
    Relativisitic corr.         ----          ----          ----  
    Second moment            0.0000000     0.0000000     0.0000000
    Electron density         0.0000000     0.0000000     1.4074942
    Electron density         0.0000000     0.0000000    -0.9383732
    Field gradient           0.0000000     0.0000000     1.4074942
    Field gradient           0.0000000     0.0000000    -0.9383732
    Potential                0.0000000     0.0000000     1.4074942
    Potential                0.0000000     0.0000000    -0.9383732
    --------------------------------------------------------------
 @CHECKOUT-I, Total execution time (CPU/WALL):        1.39/       1.42 seconds.
--executable xvprop finished with status     0 in        1.45 seconds (walltime).
 --invoking executable--
/nfs/workspaces/public/cfour_mpi/bin/xvscf
  There are  218 functions in the AO basis.

  There are 4 irreducible representations.

       Irrep        # of functions
         1                 86
         2                 52
         3                 52
         4                 28


  Parameters for SCF calculation: 
        SCF reference function:  RHF  
  Maximum number of iterations:  150
     Full symmetry point group: CXv 
     Computational point group: C2v 
        Initial density matrix: MOREAD                 
     SCF convergence tolerance: 10**(-10)
  DIIS convergence acceleration:  ON
          Latest start for DIIS:   8
                     DIIS order:   6

  Memory information:    2523578 words required.
  Fock matrices are constructed from AO integral file.
 @GETMEM-I,  Allocated      19 MB of main memory.
  Initialization and symmetry analysis required      0.002 seconds.

  Adding electric field perturbation to one-electron Hamiltonian.
  Field direction     : Z
  Field strength      : -0.0002000 a.u.

  @INITGES-I, Occupancies from core Hamiltonian:

          Alpha population by irrep:   5    1    1    0
           Beta population by irrep:   5    1    1    0


 total no. of electrons in initial guess :  0.000000000000000E+000
  --------------------------------------------------------------------
  Iteration         Total Energy            Largest Density Difference
  --------------------------------------------------------------------
       0            20.461702129183067              0.0000000000D+00
   current occupation vector 
     5  1  1  0
     5  1  1  0
       1           -92.520913930750567              0.1813352081D+02
   current occupation vector 
     5  1  1  0
     5  1  1  0
       2           -98.017597369130172              0.1812917960D+02
   current occupation vector 
     5  1  1  0
     5  1  1  0
       3          -103.519714922614682              0.8538889602D+01
   current occupation vector 
     5  1  1  0
     5  1  1  0
       4           -99.775184234483874              0.7231553467D+01
   current occupation vector 
     5  1  1  0
     5  1  1  0
       5          -102.363212235605801              0.5901676283D+01
   current occupation vector 
     5  1  1  0
     5  1  1  0
       6           -98.955414087791979              0.5901877608D+01
   current occupation vector 
     5  1  1  0
     5  1  1  0
       7          -102.365942028700857              0.6022985793D+01
   current occupation vector 
     5  1  1  0
     5  1  1  0
       8           -98.848809193001046              0.6019120307D+01
   current occupation vector 
     5  1  1  0
     5  1  1  0
       9          -109.780132049184147              0.4545359533D+01
   current occupation vector 
     5  1  1  0
     5  1  1  0
      10          -111.721134042068513              0.1098168376D+01
   current occupation vector 
     5  1  1  0
     5  1  1  0
      11          -112.686430849028255              0.6611006212D+00
   current occupation vector 
     5  1  1  0
     5  1  1  0
      12          -112.750156518813498              0.2127966214D+00
   current occupation vector 
     5  1  1  0
     5  1  1  0
      13          -112.751522556456081              0.4394155716D-01
   current occupation vector 
     5  1  1  0
     5  1  1  0
      14          -112.751701141207093              0.1757128912D-01
   current occupation vector 
     5  1  1  0
     5  1  1  0
      15          -112.751730292039667              0.1039117562D-01
   current occupation vector 
     5  1  1  0
     5  1  1  0
      16          -112.751730626837087              0.7801046852D-03
   current occupation vector 
     5  1  1  0
     5  1  1  0
      17          -112.751730643334156              0.2095595537D-03
   current occupation vector 
     5  1  1  0
     5  1  1  0
      18          -112.751730644230832              0.5525040642D-04
   current occupation vector 
     5  1  1  0
     5  1  1  0
      19          -112.751730644263887              0.1065428798D-04
   current occupation vector 
     5  1  1  0
     5  1  1  0
      20          -112.751730644265308              0.1700474397D-05
   current occupation vector 
     5  1  1  0
     5  1  1  0
      21          -112.751730644263660              0.2400826038D-06
   current occupation vector 
     5  1  1  0
     5  1  1  0
      22          -112.751730644263517              0.4985673274D-07
   current occupation vector 
     5  1  1  0
     5  1  1  0
      23          -112.751730644264342              0.2001251165D-07
   current occupation vector 
     5  1  1  0
     5  1  1  0
      24          -112.751730644264057              0.3451079422D-09
   current occupation vector 
     5  1  1  0
     5  1  1  0
      25          -112.751730644265052              0.1312194797D-09
   current occupation vector 
     5  1  1  0
     5  1  1  0

  SCF has converged.

 Density matrix saved to file den.dat
 total electron number:   13.9999999999999     
     E(SCF)=      -112.751730644264427              0.5634781530D-10

  Eigenvector printing suppressed.

 @PUTMOS-I, Writing converged MOs to NEWMOS. 
 @PUTMOS-I, Symmetry   1 Full Blocks 21 Partial Blocksize   2
 @PUTMOS-I, Symmetry   2 Full Blocks 13 Partial Blocksize   0
 @PUTMOS-I, Symmetry   3 Full Blocks 13 Partial Blocksize   0
 @PUTMOS-I, Symmetry   4 Full Blocks  7 Partial Blocksize   0
 @PUTFOCK-I, Writing converged Fock matrix to NEWFOCK. 
 @PUTFOCK-I, Symmetry   1 Full Blocks 21 Partial Blocksize   2
 @PUTFOCK-I, Symmetry   2 Full Blocks 13 Partial Blocksize   0
 @PUTFOCK-I, Symmetry   3 Full Blocks 13 Partial Blocksize   0
 @PUTFOCK-I, Symmetry   4 Full Blocks  7 Partial Blocksize   0


 
  ORBITAL EIGENVALUES (ALPHA)  (1H = 27.2113834 eV)

       MO #        E(hartree)               E(eV)           FULLSYM    COMPSYM
       ----   --------------------   --------------------   -------   ---------
    1     1         -20.6668737220        -562.3742245293     SG+        A1 (1)
    2     2         -11.4097356718        -310.4746918590     SG+        A1 (1)
    3     3          -1.4474201223         -39.3863038874     SG+        A1 (1)
    4     4          -0.7962728098         -21.6676847189     SG+        A1 (1)
    5    87          -0.5951283338         -16.1942652628      PI        B1 (2)
    6   139          -0.5951283338         -16.1942652628      PI        B2 (3)
    7     5          -0.5646240076         -15.3642003486     SG+        A1 (1)
  +++++++++++++++++++++++++++++++++++++++++++++++++++++++++++++++++++++++++++++
    8    88           0.0559671263           1.5229429310      PI        B1 (2)
    9   140           0.0559671263           1.5229429310      PI        B2 (3)
   10     6           0.0623368657           1.6962723527     SG+        A1 (1)
   11     7           0.0713951277           1.9427601930     SG+        A1 (1)
   12   141           0.1131918161           3.0801059044      PI        B2 (3)
   13    89           0.1131918161           3.0801059044      PI        B1 (2)
   14     8           0.1569651501           4.2712388811     SG+        A1 (1)
   15    90           0.1676572841           4.5621866363      PI        B1 (2)
   16   142           0.1676572841           4.5621866363      PI        B2 (3)
   17   191           0.2269785121           6.1763993152      DE        A2 (4)
   18     9           0.2269785121           6.1763993152      DE        A1 (1)
   19    10           0.2283597203           6.2139839018     SG+        A1 (1)
   20    11           0.2999222827           8.1613002252     SG+        A1 (1)
   21    91           0.3092257974           8.4144617312      PI        B1 (2)
   22   143           0.3092257974           8.4144617312      PI        B2 (3)
   23    12           0.3857647960          10.4971937673     SG+        A1 (1)
   24    92           0.3954423328          10.7605329315      PI        B1 (2)
   25   144           0.3954423328          10.7605329315      PI        B2 (3)
   26    13           0.5093422963          13.8599085064     SG+        A1 (1)
   27    14           0.5410976393          14.7240153190      DE        A1 (1)
   28   192           0.5410976393          14.7240153190      DE        A2 (4)
   29    15           0.5973046214          16.2534850589     SG+        A1 (1)
   30    93           0.6257926343          17.0286833003      PI        B1 (2)
   31   145           0.6257926343          17.0286833003      PI        B2 (3)
   32   146           0.7456993224          20.2915101632      PH        B2 (3)
   33    94           0.7456993224          20.2915101632      PH        B1 (2)
   34    16           0.7627369495          20.7551275648      DE        A1 (1)
   35   193           0.7627369495          20.7551275648      DE        A2 (4)
   36    17           0.7737019635          21.0535007662     SG+        A1 (1)
   37    95           0.8094374741          22.0259134458      PI        B1 (2)
   38   147           0.8094374741          22.0259134458      PI        B2 (3)
   39    18           0.8452871902          23.0014338157     SG+        A1 (1)
   40    19           0.8720744329          23.7303517478     SG+        A1 (1)
   41    20           0.8840996579          24.0575747557      DE        A1 (1)
   42   194           0.8840996579          24.0575747557      DE        A2 (4)
   43    96           0.8899606462          24.2170603551      PI        B1 (2)
   44   148           0.8899606462          24.2170603551      PI        B2 (3)
   45    97           1.0532568253          28.6605752909      PI        B1 (2)
   46   149           1.0532568253          28.6605752909      PI        B2 (3)
   47    21           1.1384299511          30.9782538725     SG+        A1 (1)
   48    22           1.4368065845          39.0974948412     SG+        A1 (1)
   49   150           1.4393495983          39.1666937672      PH        B2 (3)
   50    98           1.4393495983          39.1666937672      PH        B1 (2)
   51    23           1.5365953801          41.8128860174      DE        A1 (1)
   52   195           1.5365953801          41.8128860175      DE        A2 (4)
   53    99           1.5679846625          42.6670318162      PI        B1 (2)
   54   151           1.5679846625          42.6670318163      PI        B2 (3)
   55    24           1.6623140868          45.2338659482     SG+        A1 (1)
   56   100           1.7219193482          46.8558075673      PI        B1 (2)
   57   152           1.7219193482          46.8558075673      PI        B2 (3)
   58    25           1.7512467943          47.6538479482      DE        A1 (1)
   59   196           1.7512467943          47.6538479483      DE        A2 (4)
   60    26           1.8135099193          49.3481137136     SG+        A1 (1)
   61   101           2.0229787345          55.0480499534      PI        B1 (2)
   62   153           2.0229787345          55.0480499535      PI        B2 (3)
   63    27           2.0712299574          56.3610324798     SG+        A1 (1)
   64   197           2.0972618994          57.0693976356      PI        A2 (4)
   65    28           2.0972618994          57.0693976356      PI        A1 (1)
   66   198           2.1744084965          59.1686632673      DE        A2 (4)
   67    29           2.1744084965          59.1686632673      DE        A1 (1)
   68   154           2.2414906773          60.9940622063      PH        B2 (3)
   69   102           2.2414906773          60.9940622063      PH        B1 (2)
   70   103           2.3004823756          62.5993079267      PI        B1 (2)
   71   155           2.3004823756          62.5993079267      PI        B2 (3)
   72    30           2.3044081129          62.7061326700     SG+        A1 (1)
   73   156           2.3220862455          63.1871791138      PH        B2 (3)
   74   104           2.3220862455          63.1871791138      PH        B1 (2)
   75    31           2.3452361598          63.8171203078      DE        A1 (1)
   76   199           2.3452361598          63.8171203078      DE        A2 (4)
   77    32           2.4839079588          67.5905717970     SG+        A1 (1)
   78   105           2.5675298321          69.8660386511      PI        B1 (2)
   79   157           2.5675298321          69.8660386511      PI        B2 (3)
   80   158           2.7400460498          74.5604435934      PI        B2 (3)
   81   106           2.7400460498          74.5604435934      PI        B1 (2)
   82    33           2.7856993559          75.8027332110     SG+        A1 (1)
   83    34           2.9124883508          79.2528371630      DE        A1 (1)
   84   200           2.9124883509          79.2528371631      DE        A2 (4)
   85    35           3.4590688725          94.1260492960     SG+        A1 (1)
   86   107           3.6960945999         100.5758472399      PI        B1 (2)
   87   159           3.6960945999         100.5758472399      PI        B2 (3)
   88    36           3.7081440820         100.9037303190      PI        A1 (1)
   89   201           3.7081440820         100.9037303190      PI        A2 (4)
   90    37           3.9091720371         106.3739790778     SG+        A1 (1)
   91   160           4.0874226762         111.2244255587      PH        B2 (3)
   92   108           4.0874226762         111.2244255587      PH        B1 (2)
   93   109           4.1750799092         113.6097001361      PH        B1 (2)
   94   161           4.1750799092         113.6097001361      PH        B2 (3)
   95   202           4.1915988166         114.0592024586      DE        A2 (4)
   96    38           4.1915988166         114.0592024586      DE        A1 (1)
   97   110           4.1959820555         114.1784764510      PI        B1 (2)
   98   162           4.1959820555         114.1784764510      PI        B2 (3)
   99    39           4.2363887137         115.2779975207     SG+        A1 (1)
  100    40           4.3333029365         117.9151675946      DE        A1 (1)
  101   203           4.3333029365         117.9151675946      DE        A2 (4)
  102    41           4.4026817754         119.8030617789     SG+        A1 (1)
  103   111           4.8502345406         131.9815916636      PI        B1 (2)
  104   163           4.8502345406         131.9815916636      PI        B2 (3)
  105   112           4.9513593858         134.7333385989      PI        B1 (2)
  106   164           4.9513593858         134.7333385989      PI        B2 (3)
  107    42           5.0606265846         137.7066502367      DE        A1 (1)
  108   204           5.0606265846         137.7066502368      DE        A2 (4)
  109    43           5.1648544294         140.5428340832     SG+        A1 (1)
  110    44           5.4591707751         148.5515890077     SG+        A1 (1)
  111   113           5.6814181900         154.5992486236      PI        B1 (2)
  112   165           5.6814181900         154.5992486238      PI        B2 (3)
  113   205           5.8834321030         160.0963266626      PI        A2 (4)
  114    45           5.8834321030         160.0963266626      PI        A1 (1)
  115   114           6.0400349960         164.3577080260      PH        B1 (2)
  116   166           6.0400349960         164.3577080260      PH        B2 (3)
  117    46           6.2335426587         169.6233192260     SG+        A1 (1)
  118   206           6.2613224853         170.3792467378      DE        A2 (4)
  119    47           6.2613224853         170.3792467378      DE        A1 (1)
  120   167           6.2918135760         171.2089514973      PI        B2 (3)
  121   115           6.2918135760         171.2089514973      PI        B1 (2)
  122   168           6.4225849743         174.7674221543      PH        B2 (3)
  123   116           6.4225849743         174.7674221543      PH        B1 (2)
  124    48           6.5517797887         178.2829917840      DE        A1 (1)
  125   207           6.5517797888         178.2829917841      DE        A2 (4)
  126    49           6.7316476943         183.1774463225     SG+        A1 (1)
  127   208           6.9596250511         189.3810255844      DE        A2 (4)
  128    50           6.9596250511         189.3810255845      DE        A1 (1)
  129   117           7.2447199325         197.1388517102      PI        B1 (2)
  130   169           7.2447199325         197.1388517102      PI        B2 (3)
  131    51           7.5991821635         206.7842593763     SG+        A1 (1)
  132   118           8.1378616009         221.4424720790      PI        B1 (2)
  133   170           8.1378616009         221.4424720790      PI        B2 (3)
  134    52           8.1648833090         222.1777701370     SG+        A1 (1)
  135   171          10.1021630929         274.8938330909      PI        B2 (3)
  136   119          10.1021630929         274.8938330910      PI        B1 (2)
  137    53          10.3707789897         282.2032432455     SG+        A1 (1)
  138   209          10.6094519421         288.6978644597      PI        A2 (4)
  139    54          10.6094519421         288.6978644597      PI        A1 (1)
  140   120          10.8190767248         294.4020447915      PH        B1 (2)
  141   172          10.8190767248         294.4020447915      PH        B2 (3)
  142    55          10.9568248076         298.1503606856     SG+        A1 (1)
  143    56          11.0549454917         300.8203602419      DE        A1 (1)
  144   210          11.0549454917         300.8203602419      DE        A2 (4)
  145   173          11.2758138699         306.8304943607      PI        B2 (3)
  146   121          11.2758138699         306.8304943607      PI        B1 (2)
  147    57          11.5091633150         313.1802555772     SG+        A1 (1)
  148   174          11.8572318460         322.6516818249      PH        B2 (3)
  149   122          11.8572318460         322.6516818249      PH        B1 (2)
  150    58          12.1817956643         331.4835123229      DE        A1 (1)
  151   211          12.1817956644         331.4835123231      DE        A2 (4)
  152   175          12.5663435240         341.9475915668      PI        B2 (3)
  153   123          12.5663435240         341.9475915669      PI        B1 (2)
  154    59          12.8150482538         348.7151913239      DE        A1 (1)
  155   212          12.8150482538         348.7151913239      DE        A2 (4)
  156    60          13.0272911737         354.4906147899     SG+        A1 (1)
  157   124          13.6094911042         370.3330803143      PI        B1 (2)
  158   176          13.6094911042         370.3330803143      PI        B2 (3)
  159    61          14.8294287268         403.5292706885     SG+        A1 (1)
  160    62          17.8594928337         485.9815068270     SG+        A1 (1)
  161   125          19.1777671264         521.8535740329      PI        B1 (2)
  162   177          19.1777671264         521.8535740337      PI        B2 (3)
  163    63          20.5241873489         558.4915309250     SG+        A1 (1)
  164    64          26.4349269025         719.3309310947      DE        A1 (1)
  165   213          26.4349269025         719.3309310948      DE        A2 (4)
  166   126          26.8663786937         731.0713312049      PI        B1 (2)
  167   178          26.8663786937         731.0713312049      PI        B2 (3)
  168    65          27.7237376770         754.4012552089     SG+        A1 (1)
  169   179          33.7499342090         918.3823994860      PI        B2 (3)
  170   127          33.7499342090         918.3823994864      PI        B1 (2)
  171    66          34.7203587329         944.7889932654     SG+        A1 (1)
  172    67          36.4109135452         990.7913284222     SG+        A1 (1)
  173    68          47.0982603594        1281.6088201113      DE        A1 (1)
  174   214          47.0982603594        1281.6088201113      DE        A2 (4)
  175   128          47.4503207044        1291.1888691404      PI        B1 (2)
  176   180          47.4503207044        1291.1888691404      PI        B2 (3)
  177    69          48.2338756196        1312.5104823526     SG+        A1 (1)
  178    70          64.0757585947        1743.5900337662     SG+        A1 (1)
  179   129          66.6642713088        1814.0270456651      PI        B1 (2)
  180   181          66.6642713088        1814.0270456659      PI        B2 (3)
  181    71          67.6863848282        1841.8401685198     SG+        A1 (1)
  182   130          98.6240856861        2683.6978080790      PH        B1 (2)
  183   182          98.6240856861        2683.6978080790      PH        B2 (3)
  184    72          98.6403815075        2684.1412399238      DE        A1 (1)
  185   215          98.6403815075        2684.1412399238      DE        A2 (4)
  186   131          98.6853792360        2685.3656903642      PI        B1 (2)
  187   183          98.6853792360        2685.3656903642      PI        B2 (3)
  188    73          98.7048416044        2685.8952883340     SG+        A1 (1)
  189   132         103.2828134123        2810.4682343934      PH        B1 (2)
  190   184         103.2828134123        2810.4682343934      PH        B2 (3)
  191    74         103.3179258543        2811.4236925144      DE        A1 (1)
  192   216         103.3179258544        2811.4236925171      DE        A2 (4)
  193   133         103.3536090019        2812.3946803241      PI        B1 (2)
  194   185         103.3536090019        2812.3946803241      PI        B2 (3)
  195    75         103.3828337334        2813.1899256979     SG+        A1 (1)
  196    76         115.1094831131        3132.2882779676      DE        A1 (1)
  197   217         115.1094831131        3132.2882779676      DE        A2 (4)
  198   134         115.3199353930        3138.0149756430      PI        B1 (2)
  199   186         115.3199353930        3138.0149756431      PI        B2 (3)
  200    77         115.7454693333        3149.5943428405     SG+        A1 (1)
  201   187         117.0062730000        3183.9025548076      PI        B2 (3)
  202   135         117.0062730000        3183.9025548079      PI        B1 (2)
  203    78         117.7666078315        3204.5923174217     SG+        A1 (1)
  204    79         122.6242783865        3336.7762533230     SG+        A1 (1)
  205   218         198.5625163835        5403.1607621813      DE        A2 (4)
  206    80         198.5625163835        5403.1607621814      DE        A1 (1)
  207   136         198.7507491349        5408.2828357463      PI        B1 (2)
  208   188         198.7507491349        5408.2828357465      PI        B2 (3)
  209    81         199.1480448026        5419.0938004831     SG+        A1 (1)
  210    82         216.5701229866        5893.1726495729     SG+        A1 (1)
  211   137         225.0975233556        6125.2150104201      PI        B1 (2)
  212   189         225.0975233556        6125.2150104207      PI        B2 (3)
  213    83         225.9251875147        6147.7368971788     SG+        A1 (1)
  214   190         395.4651633292       10761.1541806940      PI        B2 (3)
  215   138         395.4651633292       10761.1541806945      PI        B1 (2)
  216    84         396.0882349969       10778.1088227302     SG+        A1 (1)
  217    85         509.2078314562       13856.2495320381     SG+        A1 (1)
  218    86         895.3993398135       24365.0547317715     SG+        A1 (1)


  VSCF finished.

 @CHECKOUT-I, Total execution time (CPU/WALL):       47.41/      10.50 seconds.
--executable xvscf finished with status     0 in       10.54 seconds (walltime).
 --invoking executable--
/nfs/workspaces/public/cfour_mpi/bin/xvtran
 @GETMEM-I,  Allocated    3814 MB of main memory.
  Full RHF integral transformation
  Transformation of IIII integrals :
  1 pass through the AO integral file was required.
     4549285 AO integrals were read.
     8780567 MO integrals were written to HF2.
  Transformation of IIJJ integrals :
  1 pass through the AO integral file was required.
    10304650 AO integrals were read.
    14578344 MO integrals were written to HF2.
  Transformation of IJIJ integrals :
  1 pass through the AO integral file was required.
    19555388 AO integrals were read.
    27338884 MO integrals were written to HF2.
  Transformation of IJKL integrals :
  1 pass through the AO integral file was required.
    14470983 AO integrals were read.
    18477964 MO integrals were written to HF2.
  Summary of active molecular orbitals: 
------------------------------------------------------------------------
 
  Index      Eigenvalue    Symmetry    Index      Eigenvalue    Symmetry
------------------------------------------------------------------------
     1       -20.6668737        1       110         4.1750799        2
     2       -11.4097357        1       111         4.1959821        2
     3        -1.4474201        1       112         4.8502345        2
     4        -0.7962728        1       113         4.9513594        2
     5        -0.5646240        1       114         5.6814182        2
     6        -0.5951283        2       115         6.0400350        2
     7        -0.5951283        3       116         6.2918136        2
     8         0.0623369        1       117         6.4225850        2
     9         0.0713951        1       118         7.2447199        2
    10         0.1569652        1       119         8.1378616        2
    11         0.2269785        1       120        10.1021631        2
    12         0.2283597        1       121        10.8190767        2
    13         0.2999223        1       122        11.2758139        2
    14         0.3857648        1       123        11.8572318        2
    15         0.5093423        1       124        12.5663435        2
    16         0.5410976        1       125        13.6094911        2
    17         0.5973046        1       126        19.1777671        2
    18         0.7627369        1       127        26.8663787        2
    19         0.7737020        1       128        33.7499342        2
    20         0.8452872        1       129        47.4503207        2
    21         0.8720744        1       130        66.6642713        2
    22         0.8840997        1       131        98.6240857        2
    23         1.1384300        1       132        98.6853792        2
    24         1.4368066        1       133       103.2828134        2
    25         1.5365954        1       134       103.3536090        2
    26         1.6623141        1       135       115.3199354        2
    27         1.7512468        1       136       117.0062730        2
    28         1.8135099        1       137       198.7507491        2
    29         2.0712300        1       138       225.0975234        2
    30         2.0972619        1       139       395.4651633        2
    31         2.1744085        1       140         0.0559671        3
    32         2.3044081        1       141         0.1131918        3
    33         2.3452362        1       142         0.1676573        3
    34         2.4839080        1       143         0.3092258        3
    35         2.7856994        1       144         0.3954423        3
    36         2.9124884        1       145         0.6257926        3
    37         3.4590689        1       146         0.7456993        3
    38         3.7081441        1       147         0.8094375        3
    39         3.9091720        1       148         0.8899606        3
    40         4.1915988        1       149         1.0532568        3
    41         4.2363887        1       150         1.4393496        3
    42         4.3333029        1       151         1.5679847        3
    43         4.4026818        1       152         1.7219193        3
    44         5.0606266        1       153         2.0229787        3
    45         5.1648544        1       154         2.2414907        3
    46         5.4591708        1       155         2.3004824        3
    47         5.8834321        1       156         2.3220862        3
    48         6.2335427        1       157         2.5675298        3
    49         6.2613225        1       158         2.7400460        3
    50         6.5517798        1       159         3.6960946        3
    51         6.7316477        1       160         4.0874227        3
    52         6.9596251        1       161         4.1750799        3
    53         7.5991822        1       162         4.1959821        3
    54         8.1648833        1       163         4.8502345        3
    55        10.3707790        1       164         4.9513594        3
    56        10.6094519        1       165         5.6814182        3
    57        10.9568248        1       166         6.0400350        3
    58        11.0549455        1       167         6.2918136        3
    59        11.5091633        1       168         6.4225850        3
    60        12.1817957        1       169         7.2447199        3
    61        12.8150483        1       170         8.1378616        3
    62        13.0272912        1       171        10.1021631        3
    63        14.8294287        1       172        10.8190767        3
    64        17.8594928        1       173        11.2758139        3
    65        20.5241873        1       174        11.8572318        3
    66        26.4349269        1       175        12.5663435        3
    67        27.7237377        1       176        13.6094911        3
    68        34.7203587        1       177        19.1777671        3
    69        36.4109135        1       178        26.8663787        3
    70        47.0982604        1       179        33.7499342        3
    71        48.2338756        1       180        47.4503207        3
    72        64.0757586        1       181        66.6642713        3
    73        67.6863848        1       182        98.6240857        3
    74        98.6403815        1       183        98.6853792        3
    75        98.7048416        1       184       103.2828134        3
    76       103.3179259        1       185       103.3536090        3
    77       103.3828337        1       186       115.3199354        3
    78       115.1094831        1       187       117.0062730        3
    79       115.7454693        1       188       198.7507491        3
    80       117.7666078        1       189       225.0975234        3
    81       122.6242784        1       190       395.4651633        3
    82       198.5625164        1       191         0.2269785        4
    83       199.1480448        1       192         0.5410976        4
    84       216.5701230        1       193         0.7627369        4
    85       225.9251875        1       194         0.8840997        4
    86       396.0882350        1       195         1.5365954        4
    87       509.2078315        1       196         1.7512468        4
    88       895.3993398        1       197         2.0972619        4
    89         0.0559671        2       198         2.1744085        4
    90         0.1131918        2       199         2.3452362        4
    91         0.1676573        2       200         2.9124884        4
    92         0.3092258        2       201         3.7081441        4
    93         0.3954423        2       202         4.1915988        4
    94         0.6257926        2       203         4.3333029        4
    95         0.7456993        2       204         5.0606266        4
    96         0.8094375        2       205         5.8834321        4
    97         0.8899606        2       206         6.2613225        4
    98         1.0532568        2       207         6.5517798        4
    99         1.4393496        2       208         6.9596251        4
   100         1.5679847        2       209        10.6094519        4
   101         1.7219193        2       210        11.0549455        4
   102         2.0229787        2       211        12.1817957        4
   103         2.2414907        2       212        12.8150483        4
   104         2.3004824        2       213        26.4349269        4
   105         2.3220862        2       214        47.0982604        4
   106         2.5675298        2       215        98.6403815        4
   107         2.7400460        2       216       103.3179259        4
   108         3.6960946        2       217       115.1094831        4
   109         4.0874227        2       218       198.5625164        4
------------------------------------------------------------------------
  -20.6668737220206       -11.4097356718349       -1.44742012225076     
 -0.796272809816896      -0.564624007633565      -0.595128333783855     
 -0.595128333783832       6.233686570649733E-002  7.139512771111453E-002
  0.156965150148891       0.226978512057777       0.228359720286504     
  0.299922282717012       0.385764796041110       0.509342296298276     
  0.541097639268256       0.597304621377847       0.762736949450304     
  0.773701963501727       0.845287190201828       0.872074432929451     
  0.884099657928693        1.13842995106436        1.43680658445261     
   1.53659538005865        1.66231408683748        1.75124679431855     
   1.81350991929329        2.07122995737992        2.09726189943090     
   2.17440849653126        2.30440811289476        2.34523615979742     
   2.48390795879023        2.78569935591810        2.91248835084890     
   3.45906887247602        3.70814408204784        3.90917203709018     
   4.19159881664096        4.23638871373030        4.33330293654290     
   4.40268177541181        5.06062658455892        5.16485442938484     
   5.45917077511525        5.88343210300110        6.23354265869589     
   6.26132248527300        6.55177978874664        6.73164769426943     
   6.95962505105318        7.59918216345830        8.16488330898379     
   10.3707789897024        10.6094519420767        10.9568248075776     
   11.0549454917405        11.5091633149815        12.1817956643436     
   12.8150482538076        13.0272911736586        14.8294287268198     
   17.8594928336851        20.5241873489249        26.4349269024912     
   27.7237376769658        34.7203587328603        36.4109135451838     
   47.0982603593509        48.2338756195925        64.0757585946994     
   67.6863848281903        98.6403815075330        98.7048416044159     
[...]
 Convergence information after     9 iterations: 
 Largest element of residual vector : -0.17056841E-04.
 Largest element of DIIS residual   : -0.69767331E-05.
 Convergence information after    10 iterations: 
 Largest element of residual vector : -0.77452331E-05.
 Largest element of DIIS residual   : -0.56995114E-05.
 Convergence information after    11 iterations: 
 Largest element of residual vector : -0.36676527E-05.
 Largest element of DIIS residual   : -0.11387344E-05.
 Convergence information after    12 iterations: 
 Largest element of residual vector : -0.17316511E-05.
 Largest element of DIIS residual   :  0.65396607E-06.
 Convergence information after    13 iterations: 
 Largest element of residual vector :  0.54757152E-06.
 Largest element of DIIS residual   :  0.17824567E-06.
 Convergence information after    14 iterations: 
 Largest element of residual vector :  0.21358868E-06.
 Largest element of DIIS residual   :  0.88095832E-07.
 Perturbed amplitude equations converged in    14 iterations.
  Dominant contributions to perturbed wavefunction:
    7    7  141   28   0.2327269648 ABAB
    7    7   28  141   0.2327269648 ABAB
    7    7  141   39   0.1782474920 ABAB
    7    7   39  141   0.1782474920 ABAB
    7    7  140   28   0.1771964444 ABAB
    7    7   28  140   0.1771964444 ABAB
    7    7  141   37  -0.1671693354 ABAB
    7    7   37  141  -0.1671693354 ABAB
    7    6   28   90   0.1502225971 ABAB
    6    7   90   28   0.1502225971 ABAB
    7    7  141   45   0.1387684915 ABAB
    7    7   45  141   0.1387684915 ABAB
    7    0   45    0  -0.1316307356 AA  
    7    7  141   54  -0.1316143323 ABAB
    7    7   54  141  -0.1316143323 ABAB
    7    7  140   39   0.1300243211 ABAB
    7    7   39  140   0.1300243211 ABAB
    7    7  141   20   0.1273990566 ABAB
    7    7   20  141   0.1273990566 ABAB
    7    7  140   37  -0.1240664406 ABAB
  norm of converged amps    2.17960293787982     
 Starting iterative solution of the perturbed Lambda equations.
 The DIIS procedure is used to accelerate convergence.
 Convergence criterion is 10**(-7).
 Maximum number of iterations is 100.
 Convergence information after     1 iterations: 
 Largest element of residual vector :  0.59265628E-01.
 Largest element of DIIS residual   :  0.59265628E-01.
 Convergence information after     2 iterations: 
 Largest element of residual vector : -0.99089417E-02.
 Largest element of DIIS residual   : -0.61882378E-02.
 Convergence information after     3 iterations: 
 Largest element of residual vector : -0.50006042E-02.
 Largest element of DIIS residual   : -0.44136869E-02.
 Convergence information after     4 iterations: 
 Largest element of residual vector : -0.30912954E-02.
 Largest element of DIIS residual   : -0.25360519E-02.
 Convergence information after     5 iterations: 
 Largest element of residual vector : -0.19923521E-02.
 Largest element of DIIS residual   : -0.10247082E-02.
 Convergence information after     6 iterations: 
 Largest element of residual vector : -0.69493505E-03.
 Largest element of DIIS residual   : -0.20971358E-03.
 Convergence information after     7 iterations: 
 Largest element of residual vector : -0.18831739E-03.
 Largest element of DIIS residual   :  0.84471065E-04.
 Convergence information after     8 iterations: 
 Largest element of residual vector :  0.51243799E-04.
 Largest element of DIIS residual   : -0.27210914E-04.
 Convergence information after     9 iterations: 
 Largest element of residual vector :  0.14377463E-04.
 Largest element of DIIS residual   : -0.66009957E-05.
 Convergence information after    10 iterations: 
 Largest element of residual vector : -0.57578723E-05.
 Largest element of DIIS residual   : -0.47971330E-05.
 Convergence information after    11 iterations: 
 Largest element of residual vector : -0.26774273E-05.
 Largest element of DIIS residual   : -0.10899082E-05.
 Convergence information after    12 iterations: 
 Largest element of residual vector : -0.14600373E-05.
 Largest element of DIIS residual   :  0.98099588E-06.
 Convergence information after    13 iterations: 
 Largest element of residual vector :  0.74756229E-06.
 Largest element of DIIS residual   :  0.43545326E-06.
 Convergence information after    14 iterations: 
 Largest element of residual vector :  0.41346940E-06.
 Largest element of DIIS residual   :  0.21251223E-06.
 Convergence information after    15 iterations: 
 Largest element of residual vector :  0.13995559E-06.
 Largest element of DIIS residual   :  0.67682349E-07.
 Perturbed Lambda equations converged in    15 iterations.
  Dominant contributions to perturbed wavefunction:
    7    7  141   28   0.2159805948 ABAB
    7    7   28  141   0.2159805948 ABAB
    7    7  140   28   0.1654582788 ABAB
    7    7   28  140   0.1654582788 ABAB
    7    7  141   39   0.1637749067 ABAB
    7    7   39  141   0.1637749067 ABAB
    7    7  141   37  -0.1567120136 ABAB
    7    7   37  141  -0.1567120136 ABAB
    7    6   28   90   0.1372423365 ABAB
    6    7   90   28   0.1372423365 ABAB
    7    7  141   45   0.1247937477 ABAB
    7    7   45  141   0.1247937477 ABAB
    7    7  141   54  -0.1240466401 ABAB
    7    7   54  141  -0.1240466401 ABAB
    7    7  140   39   0.1201742267 ABAB
    7    7   39  140   0.1201742267 ABAB
    7    7  140   37  -0.1169266193 ABAB
    7    7   37  140  -0.1169266193 ABAB
    7    7  141   20   0.1158227282 ABAB
    7    7   20  141   0.1158227282 ABAB
        The DBOC first-order density matrix is being calculated 
             (Symmetry block 3, perturbation   2)
 term   5.46796708427643     
 final tnorm  0.872176605868572     
  norm contr. I: |<0|L dT/dx|0>|^2   0.000000000000000E+000
  norm contr. II: <0|[nabla(1+L)e-T][nabla e^T]|0>   5.46796708427643     
  total norm contribution   5.46796708427643     
 oo  8.690971708013959E-003
 vv  -36.4590814115921     
 vo  4.852734043617490E-002
  Correlated perturbed 1-el contribution to DBOC  -36.4018630994480       cm**-1
  SUM_I |dc_I/dx|^2 contribution to DBOC   18.2925303109369       cm**-1
 
 
  The total diagonal Born-Oppenheimer correction (DBOC) is:      0.0038678881 a.u.
  The total diagonal Born-Oppenheimer correction (DBOC) is:        848.903306 cm-1
 
 Total CC energy including DBOC  -113.256561168096     
 First-order density matrix is being calculated  (Symmetry block 3, perturbation   2)
 Calculation of the contributions of <pq||rs> to dI(i,j)/dx required   1.8 seconds.
 Calculation of the contributions of <pq||rs> to dI(a,b)/dx required  15.7 seconds.
 Calculation of the contributions of <pq||rs> to dI(i,a)/dx required   9.4 seconds.
 First-order Z-vector equations are solved for 1 perturbation.
 Convergence reached after  18 iterations.
        U*G(pq,rs) contribution is being calculated
             (Symmetry block 3, perturbation   2)

 CCSD contribution to force constants 

        0.0000000000        0.0000000000        0.0000000000
        0.0000000000        0.0000000000        0.0000000000
        0.0000000000        0.0000000000        0.0000000000
        0.0000000000        0.0000000000        0.0000000000
        0.0000000000        0.0000000000        0.0000000000
        0.0000000000        0.0000000000        0.0000000000
        0.0000000000        0.0000000000        0.0000000000
        0.0000000000        0.0000000000        0.0000000000
        0.0000000000        0.0000000000        0.0000000000
        0.0000000000        0.0000000000        0.0000000000
        0.0000000000        0.0000000000        0.0000000000
        0.0000000000        1.3817879110       -1.3817879110

 CCSD contribution to dipole derivatives 

        0.0000000000        0.0000000000        0.0000000000
        0.0000000000        0.0000000000        0.0000000000
        0.0000000000        0.0000000000        0.0000000000
        0.0000000000        0.0000000000       -0.0491703007
        0.0000000000        0.0000000000        0.0000000000
        0.0000000000        0.0000000000        0.0000000000
 @CHECKOUT-I, Total execution time (CPU/WALL):     1186.59/     469.61 seconds.
--executable xsdcc finished with status     0 in      469.84 seconds (walltime).
 --invoking executable--
/nfs/workspaces/public/cfour_mpi/bin/xanti
 @GETMEM-I,  Allocated    3814 MB of main memory.
 CCSD MO derivative gammas will be sorted to Mulliken order.
 @CHECKOUT-I, Total execution time (CPU/WALL):       12.72/      22.32 seconds.
--executable xanti finished with status     0 in       22.46 seconds (walltime).
 --invoking executable--
/nfs/workspaces/public/cfour_mpi/bin/xbcktrn
 @GETMEM-I,  Allocated    3814 MB of main memory.
 CCSD MO derivative gammas will be transformed to the AO basis.
 @CHECKOUT-I, Total execution time (CPU/WALL):       27.31/       7.59 seconds.
--executable xbcktrn finished with status     0 in        7.65 seconds (walltime).
 --invoking executable--
/nfs/workspaces/public/cfour_mpi/bin/xvdint
 @GETMEM-I,  Allocated    3814 MB of main memory.
 One- and two-electron integral derivatives are calculated
 for RHF-CC/MBPT hessians and dipole derivatives.
 Spherical gaussians are used.
  magnet F F
                    8722  records have been written to the Sort file.
  Total length of Sort file :             178609116  words.
 Evaluation of 2el integral derivatives

                      Two-electron integral gradient
                      ------------------------------

                         C #1 z     0.0000000000
                         O #2 z     0.0000000000


 C #1       0.0000000000           -0.3157302878            0.0000000000
 O #2       0.0000000000            0.3157302878            0.0000000000


 Evaluation of 2e integral derivatives required  366.22 seconds.
  contribution to Hessian
        0.0000000000        0.0000000000        0.0000000000
        0.0000000000       -0.3157302878        0.3157302878
 @CHECKOUT-I, Total execution time (CPU/WALL):      366.21/      81.39 seconds.
--executable xvdint finished with status     0 in       81.81 seconds (walltime).
 --invoking executable--
/nfs/workspaces/public/cfour_mpi/bin/xanti
 @GETMEM-I,  Allocated    3814 MB of main memory.
 CCSD MO gammas will be sorted to Mulliken order.
 @CHECKOUT-I, Total execution time (CPU/WALL):       15.86/      51.92 seconds.
--executable xanti finished with status     0 in       52.04 seconds (walltime).
 --invoking executable--
/nfs/workspaces/public/cfour_mpi/bin/xbcktrn
 @GETMEM-I,  Allocated    3814 MB of main memory.
 CCSD MO gammas will be transformed to the AO basis.
 @CHECKOUT-I, Total execution time (CPU/WALL):       42.68/      21.82 seconds.
--executable xbcktrn finished with status     0 in       21.89 seconds (walltime).
 --invoking executable--
/nfs/workspaces/public/cfour_mpi/bin/xvdint
 @GETMEM-I,  Allocated    3814 MB of main memory.
 One- and two-electron integral derivatives are calculated
 for RHF-CC/MBPT hessians and dipole derivatives.
 Spherical gaussians are used.
  magnet F F

                     Kinetic energy integral gradient
                     --------------------------------

                         C #1 z    -1.1790597728
                         O #2 z     1.1790597728


 C #1       0.0000000000            0.0000000000           -1.1790597728
 O #2       0.0000000000            0.0000000000            1.1790597728



                   Nuclear attraction integral gradient
                   ------------------------------------

                         C #1 z    20.7201777308
                         O #2 z   -20.7201777308


 C #1       0.0000000000            0.0000000000           20.7201777308
 O #2       0.0000000000            0.0000000000          -20.7201777308



                      Reorthonormalization gradient
                      -----------------------------

                         C #1 z     0.0000000000
                         O #2 z     0.0000000000


 C #1       0.0000000000            0.0000000000            0.0000000000
 O #2       0.0000000000            0.0000000000            0.0000000000



                     Kinetic energy integral Hessian
                     -------------------------------


           Symmetry 1

           C #1 z      O #2 z

 C #1 z    1.040079
 O #2 z   -1.040079    1.040079


           Symmetry 2

           C #1 x      O #2 x

 C #1 x   -1.335515
 O #2 x    1.335515   -1.335515


           Symmetry 3

           C #1 y      O #2 y

 C #1 y   -1.335515
 O #2 y    1.335515   -1.335515




           C #1 x      C #1 y      C #1 z      O #2 x      O #2 y      O #2 z

 C #1 x   -1.335515
 C #1 y    0.000000   -1.335515
 C #1 z    0.000000    0.000000    1.040079

 O #2 x    1.335515    0.000000    0.000000   -1.335515
 O #2 y    0.000000    1.335515    0.000000    0.000000   -1.335515
 O #2 z    0.000000    0.000000   -1.040079    0.000000    0.000000    1.040079




                   Nuclear attraction integral Hessian
                   -----------------------------------


           Symmetry 1

           C #1 z      O #2 z

 C #1 z  -12.463981
 O #2 z   12.463981  -12.463981


           Symmetry 2

           C #1 x      O #2 x

 C #1 x   16.058832
 O #2 x  -16.058832   16.058832


           Symmetry 3

           C #1 y      O #2 y

 C #1 y   16.058832
 O #2 y  -16.058832   16.058832




           C #1 x      C #1 y      C #1 z      O #2 x      O #2 y      O #2 z

 C #1 x   16.058832
 C #1 y    0.000000   16.058832
 C #1 z    0.000000    0.000000  -12.463981

 O #2 x  -16.058832    0.000000    0.000000   16.058832
 O #2 y    0.000000  -16.058832    0.000000    0.000000   16.058832
 O #2 z    0.000000    0.000000   12.463981    0.000000    0.000000  -12.463981




                Highest order reorthonormalization Hessian
                ------------------------------------------


           Symmetry 1

           C #1 z      O #2 z

 C #1 z    0.000000
 O #2 z    0.000000    0.000000


           Symmetry 2

           C #1 x      O #2 x

 C #1 x    0.000000
 O #2 x    0.000000    0.000000


           Symmetry 3

           C #1 y      O #2 y

 C #1 y    0.000000
 O #2 y    0.000000    0.000000




           C #1 x      C #1 y      C #1 z      O #2 x      O #2 y      O #2 z




                Electronic contributions to dipole moment
                -----------------------------------------

                               au             Debye

                    z     -0.84842878     -2.15649123

  Conversion factor used: 1 a.u. =   2.54174691 Debye 



   Electronic contributions to static part of dipole moment derivatives
   --------------------------------------------------------------------


                     Total dipole moment derivatives
                     -------------------------------


           Symmetry 1
                              Ez

               C #1 z    -5.65931621
               O #2 z    -8.34068379

           Symmetry 2
                              Ex

               C #1 x    -5.73378477
               O #2 x    -8.26621523

           Symmetry 3
                              Ey

               C #1 y    -5.73378477
               O #2 y    -8.26621523



                       Ex          Ey          Ez

      C #1    x   -5.733785    0.000000    0.000000
      C #1    y    0.000000   -5.733785    0.000000
      C #1    z    0.000000    0.000000   -5.659316

      O #2    x   -8.266215    0.000000    0.000000
      O #2    y    0.000000   -8.266215    0.000000
      O #2    z    0.000000    0.000000   -8.340684

 Evaluation of 1e integral derivatives required    1.81 seconds.
                    8815  records have been written to the Sort file.
  Total length of Sort file :             180513570  words.
 Evaluation of 2el integral derivatives

                      Two-electron integral gradient
                      ------------------------------

                         C #1 z   -10.1813984756
                         O #2 z    10.1813984756


 C #1       0.0000000000            0.0000000000          -10.1813984756
 O #2       0.0000000000            0.0000000000           10.1813984756


 Evaluation of 2e integral derivatives required  702.31 seconds.

                            Molecular gradient
                            ------------------

                         C #1 z     0.6373532950
                         O #2 z    -0.6373532950


 C #1       0.0000000000            0.0000000000            0.6373532950
 O #2       0.0000000000            0.0000000000           -0.6373532950


  Molecular gradient norm 0.901E+00

                            Molecular hessian
                            -----------------


           Symmetry 1

           C #1 z      O #2 z

 C #1 z   48.628918
 O #2 z  -48.628918   48.628918


           Symmetry 2

           C #1 x      O #2 x

 C #1 x   -0.805263
 O #2 x    0.805263   -0.805263


           Symmetry 3

           C #1 y      O #2 y

 C #1 y   -0.805263
 O #2 y    0.805263   -0.805263




           C #1 x      C #1 y      C #1 z      O #2 x      O #2 y      O #2 z

 C #1 x   -0.805263
 C #1 y    0.000000   -0.805263
 C #1 z    0.000000    0.000000   48.628918

 O #2 x    0.805263    0.000000    0.000000   -0.805263
 O #2 y    0.000000    0.805263    0.000000    0.000000   -0.805263
 O #2 z    0.000000    0.000000  -48.628918    0.000000    0.000000   48.628918




                           Total dipole moment
                           -------------------

                               au             Debye

                    z      0.08955047      0.22761463

  Conversion factor used: 1 a.u. =   2.54174691 Debye 



                     Total dipole moment derivatives
                     -------------------------------


           Symmetry 1
                              Ez

               C #1 z     0.71106000
               O #2 z    -0.71106000

           Symmetry 2
                              Ex

               C #1 x     0.03849085
               O #2 x    -0.03849085

           Symmetry 3
                              Ey

               C #1 y     0.03849085
               O #2 y    -0.03849085



                       Ex          Ey          Ez

      C #1    x    0.038491    0.000000    0.000000
      C #1    y    0.000000    0.038491    0.000000
      C #1    z    0.000000    0.000000    0.711060

      O #2    x   -0.038491    0.000000    0.000000
      O #2    y    0.000000   -0.038491    0.000000
      O #2    z    0.000000    0.000000   -0.711060

 @CHECKOUT-I, Total execution time (CPU/WALL):      704.11/     117.94 seconds.
--executable xvdint finished with status     0 in      118.12 seconds (walltime).
 --invoking executable--
/nfs/workspaces/public/cfour_mpi/bin/xjoda
  @GTFLGS-I, Hessian will be transformed to curvilinear coordinates.
  @GTFLGS-I, Hessian will be transformed to curvilinear coordinates.
  igrd and ihes are                      0                     1
  gradient from JOBARC 
   0.000000000000000   0.000000000000000   0.637353295003442
   0.000000000000000   0.000000000000000  -0.637353295003442
 
  @PROJFCM-I, Projecting force constant matrix onto totally symmetric subspace.
  Largest difference between matrix elements of symmetrized
  and unsymmetrized FCM :     0.1090205703E-10.
  read isotopes from ZMAT file 
 
  Summary of diagonal Born-Oppenheimer correction at the correlated level
  The total diagonal Born-Oppenheimer correction (DBOC) is:      0.0038678881 a.u.
  The total diagonal Born-Oppenheimer correction (DBOC) is:        848.903306 cm-1
  The total diagonal Born-Oppenheimer correction (DBOC) is:            10.155 kJ/mole
  hellooooooo 
  readis is  F
 
 @CHECKOUT-I, Total execution time (CPU/WALL):        0.01/       0.05 seconds.
--executable xjoda finished with status     0 in        0.08 seconds (walltime).
  The final electronic energy is      -113.256561168095573 a.u. 
  This computation required                         4247.12 seconds (walltime).
