 --invoking executable--
/nfs/workspaces/public/cfour_mpi/bin/xjoda


   *************************************************************************
         <<<     CCCCCC     CCCCCC   |||     CCCCCC     CCCCCC   >>>
       <<<      CCC        CCC       |||    CCC        CCC         >>>
      <<<      CCC        CCC        |||   CCC        CCC            >>>
    <<<        CCC        CCC        |||   CCC        CCC              >>>
      <<<      CCC        CCC        |||   CCC        CCC            >>>
       <<<      CCC        CCC       |||    CCC        CCC         >>>
         <<<     CCCCCC     CCCCCC   |||     CCCCCC     CCCCCC   >>>
   *************************************************************************

     ****************************************************************
     * CFOUR Coupled-Cluster techniques for Computational Chemistry *
     ****************************************************************
 

   Department of Chemistry                Institut fuer Physikalische Chemie
   University of Florida                  Universitaet Mainz
   Gainesville, FL 32611, USA             D-55099 Mainz, Germany

   Department of Chemistry                Fakultaet fuer Chemie und Biowiss.
   Johns Hopkins University               Karlsruher Institut fuer Technologie
   Baltimore, MD 21218, USA               D-76131 Karlsruhe, Germany

   Department of Chemistry                Department of Physical Chemistry
   Southern Methodist University          Eotvos Lorand University
   Dallas, TX 75275, USA                  H-1053 Budapest, Hungary

 
                       Version 2.1
 
                     vincent.theory.phys.ucl.ac.uk                     
                     Mon  3 Mar 12:03:56 GMT 2025                      
                     integer*8 version is running
 
********************************************************************************
*                          Input from ZMAT file                                *
********************************************************************************
Carbon Monoxide DBOC calculation                                                
C                                                                               
O 1 r                                                                           
                                                                                
r=1.6137931034482758                                                            
                                                                                
                                                                                
*CFOUR(CALC=CCSD,BASIS=AUG-PCVQZ,SCF_CONV=10                                    
CC_CONV=14,DBOC=ON,MEMORY=500000000                                             
ZFIELD=-200)                                                                    
                                                                                
%isotopes                                                                       
12                                                                              
18                                                                              
********************************************************************************
  @GTFLGS-I, Hessian will be transformed to curvilinear coordinates.
    -------------------------------------------------------------------
                    CFOUR Control Parameters 
    -------------------------------------------------------------------
        External           Internal           Value            Units
          Name               Name
    -------------------------------------------------------------------
       ABCDTYPE             IABCDT         STANDARD    [  0]    ***   
       ANHARMONIC           IANHAR         OFF         [  0]    ***   
       ANH_ALGORIT          IANALG         STANDARD    [  0]    ***   
       ANH_DERIVAT          IANDER         SECOND      [  1]    ***   
       ANH_MODE             ANHMOD         VIBRATION   [  0]    ***   
       ANH_STEPSIZ          ICUBST             50000          x 10-6  
       ANH_SYMMETR          IANHSM         ABELIAN     [  0]    ***   
       AO_LADDERS           IAOLAD         SINGLEPASS  [  1]    ***   
       AV_SCF               IAVSCF         OFF         [  0]    ***   
       BASIS                IBASIS         AUG-PCVQZ   [ 52]    ***   
       BOTHVECTORS          BOTHVC         OFF         [  0]    ***   
       BOX_POTENT           IPIAB          OFF         [  0]    ***   
       BREIT                IBREIT         OFF         [  0]    ***   
       BRUCK_CONV           IBRTOL          10D-  4             ***   
       BRUECKNER            IBRKNR         OFF         [  0]    ***   
       BUFFERSIZE           IBUFFS              4096            ***   
       CACHE_RECS           ICHREC             10               ***   
       CALCLEVEL            ICLLVL         CCSD        [ 10]    ***   
       CCORBOPT             ICCORB         OFF         [  0]  x 0.01  
       CC_CONV              ICCCNV          10D- 14             ***   
       CC_EXPORDER          ICCEOR              5               ***   
       CC_EXTRAPOL          ICCEXT         DIIS        [  1]    ***   
       CC_GUESS             ICCGES         MP2         [  0]    ***   
       CC_MAXCYC            ICCCYC            100              cycles 
       CC_PROGRAM           ICCPRO         VCC         [  0]    ***   
       CHARGE               ICHRGE              0               ***   
       CHOLESKY             ICHOLE         OFF         [  0]    ***   
       CIS_CONV             ICISTL              5               ***   
       COMM_SIZE            IPSIZE            ***               ***   
       CONSTANT             ICONST         OLD         [  1]    ***   
       CONTINUUM            ICONTU         NONE        [  0]    ***   
       CONTRACTION          ICNTYP         GENERAL     [  1]    ***   
       COORDINATES          ICOORD         INTERNAL    [  0]    ***   
       CPHF_CONVER          ICPHFT          10D- 16             ***   
       CPHF_MAXCYC          ICPHFC             64              cycles 
       CUBIC                ICUBIC         OFF         [  0]    ***   
       CURVILINEAR          ICURVY         ON          [  1]    ***   
       DBOC                 IDBOC          ON          [  1]    ***   
       DCT                  IDCT           OFF         [  0]    ***   
       DERIV_LEV            IDRLVL         SECOND      [  2]    ***   
       DEVMEM_SIZE          IDVMEM          50000000           MByte  
       DIAG_MRCC            IEOMST          10D-  0             ***   
       DIFF_TYPE            IDIFTY         RELAXED     [  0]    ***   
       DIRECT               IDIRCT         OFF         [  0]    ***   
       DROPMO               IDRPMO      NONE         
       ECP                  IECP           OFF         [  0]    ***   
       EIGENVECTOR          IVEC                1               ***   
       EL_ANHARM            IELANH         OFF         [  0]    ***   
       EOMFOLLOW            IEOMSR         ENERGY      [  0]    ***   
       EOMIP                IEOMIP         OFF         [  0]    ***   
       EOMLEVEL             HBARFM         SAME        [  0]    ***   
       EOM_MRCC             IMRCCE         NEW         [  1]    ***   
       EOM_NONIT            EOMNON         OFF         [  0]    ***   
       EOM_NSING            IEOMSI          10D-  0             ***   
       EOM_NSTATES          IMRCCD         DAVIDSON    [  0]    ***   
       EOM_NTRIP            IEOMTR          10D-  0             ***   
       EOM_ORDER            IEXORD         ENERGY      [  0]    ***   
       EOM_PROPSTA          IEOMST              0               ***   
       ESTATE_CONV          IEXTOL          10D-  5             ***   
       ESTATE_DIAG          IEXDIG         ITERATIVE   [  0]    ***   
       ESTATE_LOCK          IESLOC         ON          [  1]    ***   
       ESTATE_MAXC          IEXMXC             40               ***   
       ESTATE_PROP          IEXPRP         OFF         [  0]    ***   
       EVAL_HESS            IRECAL              0            # of cyc.
       EXCITATION           IEXCIT              0               ***   
       EXCITE               IEXCIT         NONE        [  0]    ***   
       EXTERN_POT           IEXPOT         OFF         [  0]    ***   
       FCGRADNEW            IFCGNW         OFF         [  0]    ***   
       FC_FIELD             IFINFC              0             x 10-6  
       FD_CALTYPE           IFDCAL         GRADONLY    [  0]    ***   
       FD_PROJECT           IFDPRJ         OFF         [  1]    ***   
       FD_STEPSIZE          IDISFD              0            10-4 bohr
       FD_USEGROUP          IFDGRP         FULL        [  0]    ***   
       FILE_RECSIZ          IFLREC              4096           words  
       FINITE_PERT          IFIPER              0             x 10-6  
       FIXGEOM              IFIXGM         OFF         [  0]    ***   
       FOCK                 IFOCK          AO          [  1]    ***   
       FREQ_ALGORI          IVIALG         STANDARD    [  0]    ***   
       FROZEN_CORE          IFROCO         OFF         [  0]    ***   
       GAMMA_ABCD           IGABCD         STORE       [  0]    ***   
       GAMMA_ABCI           IGABCI         STORE       [  0]    ***   
       GENBAS_1             IGNBS1              0               ***   
       GENBAS_2             IGNBS2              0               ***   
       GENBAS_3             IGNBS3              0               ***   
       GENBAS_4             IGNBS4              0               ***   
       GEO_CONV             ICONTL              5              H/bohr 
       GEO_MAXCYC           IOPTCY             50               ***   
       GEO_MAXSTEP          IMXSTP            300            millibohr
       GEO_METHOD           INR            SINGLE_POINT[  5]    ***   
       GIAO                 IGIAO          OFF         [  1]    ***   
       GIMIC                IGIMIC         OFF         [  0]    ***   
       GRID                 IGRID          OFF         [  0]    ***   
       GRID_ALGO            IGALGO         SERIAL      [  0]    ***   
       GUESS                IGUESS         MOREAD      [  0]    ***   
       HBAR                 IHBAR          OFF         [  0]    ***   
       HESS_TYPE            IHESTP         SCF         [  0]    ***   
       HF2_FILE             IHF2Fl         USE         [  1]    ***   
       HFSTABILITY          ISTABL         OFF         [  0]    ***   
       INCORE               INCORE         OFF         [  0]    ***   
       INPUT_MRCC           IMRCC          ON          [  1]    ***   
       INTEGRALS            INTTYP         VMOL        [  1]    ***   
       JODA_PRINT           IJPRNT              0               ***   
       KEYWORD_OUT          IDMPKW         NO          [  0]    ***   
       LINDEP_TOL           ILINDP              8               ***   
       LINEQ_CONV           IZTACN          10D-  7           cycles  
       LINEQ_EXPOR          ILMAXD              5               ***   
       LINEQ_MAXCY          ILMAXC            100               ***   
       LINEQ_TYPE           ILTYPE         DIIS        [  1]    ***   
       LOCK_ORBOCC          ILOCOC         OFF         [  0]    ***   
       MEMORY_SIZE          IMEMSZ         500000000           words  
       MEM_UNIT             IMEMU          INTEGERWORDS[  0]    ***   
       MRCC                 IMRCCC         OFF         [  0]    ***   
       MULTIPLICTY          IMULTP              1               ***   
       NACOUPLING           IVCOUP         OFF         [  0]    ***   
       NEGEVAL              IDIE           ABORT       [  0]    ***   
       NEWNORM              INEWNO         OFF         [  0]    ***   
       NON-HF               INONHF         OFF         [  0]    ***   
       NTOP_TAMP            ITOPT2             15               ***   
       NUC_MODEL            INUCMO         POINT       [  0]    ***   
       OCCUPATION           IOCCU   ESTIMATED BY SCF 
       OPEN-SHELL           IOPEN          SPIN-ORBITAL[  0]    ***   
       OPTVIB               IOPTVB         OFF         [  0]    ***   
       ORBITALS             IORBTP         STANDARD    [  0]    ***   
       PARALLEL             IPARAL         ON          [  1]    ***   
       PARA_INT             IPINTS         ON          [  1]    ***   
       PARA_PRINT           IPPRIN              0               ***   
       PERT_ORB             IPTORB         STANDARD    [  0]    ***   
       POINTS               IGRDFD              0               ***   
       PRINT                IPRNT               0               ***   
       PROPS                IPROPS         OFF         [  0]    ***   
       PROP_INTEGR          IINTYP         INTERNAL    [  0]    ***   
       PSI                  IPSI           OFF         [  0]    ***   
       QC_ALG               IQCALG         FLM         [  0]    ***   
       QC_LINALG            IQCLIN         TRIDIAG     [  2]    ***   
       QC_MAXCYC            IQCMAX          10D-100           cycles  
       QC_MAXSCFCY          IQCMSC          10D- 15           cycles  
       QC_RTRUST            IQCRTR          10D-  0           x 10-3  
       QC_SKIPSCF           IQCSKI         OFF         [  0]    ***   
       QC_START             IQCSTA          10D-  1             ***   
       QRHFGUESS            IQGUES         OFF         [  0]    ***   
       QUARTIC              IQUART         OFF         [  0]    ***   
       RAMAN_INT            IRAMIN         OFF         [  0]    ***   
       RAMAN_ORB            IRAMRE         UNRELAXED   [  0]    ***   
       RDO                  IRDOFM         ON          [  1]    ***   
       REDUCE_REPR          REDREP         Ir          [  0]    ***   
       REFERENCE            IREFNC         RHF         [  0]    ***   
       RELATIVIST           IRELAT         OFF         [  0]    ***   
       RELAX_DENS           IRDENS         ON          [  1]    ***   
       RESET_FLAGS          IRESET         OFF         [  0]    ***   
       RESTART_CC           ICCRES         OFF         [  0]    ***   
       ROT_EVEC             ROTVEC              0               ***   
       SAVE_INTS            ISVINT         OFF         [  0]    ***   
       SCALE_ON             ISTCRT              0               ***   
       SCF_CONV             ISCFCV          10D- 10             ***   
       SCF_DAMPING          IDAMP               0             x 10-3  
       SCF_EXPORDE          IRPPOR              6               ***   
       SCF_EXPSTAR          IRPPLS              8               ***   
       SCF_EXTRAPO          IRPP           ON          [  1]    ***   
       SCF_MAXCYC           ISCFCY            150              cycles 
       SCF_NOSTOP           ISCFST         OFF         [  0]    ***   
       SCF_PRINT            ISCFPR              0               ***   
       SCF_PROG             ISCFPR         SCF         [  0]    ***   
       SD_FIELD             IFINSD              0             x 10-6  
       SOPERT               IPERSO         OFF         [  0]    ***   
       SPHERICAL            IDFGHI         ON          [  1]    ***   
       SPINORBIT            ISOCAL         OFF         [  0]    ***   
       SPINROTATIO          ISRCON         OFF         [  0]    ***   
       SPIN_FLIP            ISPFLP         OFF         [  0]    ***   
       SPIN_ORBIT           ISPORB         OFF         [  0]    ***   
       SPIN_SCAL            ISCSMP         OFF         [  0]    ***   
       STEEPSCALE           ISTPSC              1000          x 10-3  
       SUBGROUP             ISUBGP         DEFAULT     [  0]    ***   
       SUBGRPAXIS           ISBXYZ         X           [  0]    ***   
       SYMMETRY             ISYM           ON          [  0]    ***   
       SYM_CHECK            ISYMCK         OVERRIDE    [  1]    ***   
       T3_EXTRAPOL          IT3EXT         OFF         [  0]    ***   
       T4_EXTRAPOL          IT4EXP         OFF         [  0]    ***   
       TAMP_SUM             IEVERY              5               ***   
       TESTSUITE            ITESTS         OFF         [  0]    ***   
       THERMOCH             ITHERM         OFF         [  0]    ***   
       TOL_CHOLESK          ITOLCH          10D-  4             ***   
       TRANGRAD             IRESRM         OFF         [  0]    ***   
       TRANS_INV            ITRAIN         IGNORE      [  1]    ***   
       TREAT_PERT           ITREAT         SIMULTANEOUS[  0]    ***   
       TRIP_ALGORI          ITRALG         NORMAL      [  0]    ***   
       UIJ_THRESHO          IUIJTH              1               ***   
       UNITS                IUNITS         ANGSTROM    [  0]    ***   
       UNOS                 IUNOS          OFF         [  0]    ***   
       UPDATE_HESS          IHUPDT         ON          [  1]    ***   
       VIBPHASE             ISETPH         STANDARD    [  0]    ***   
       VIBRATION            IVIB           ANALYTIC    [  1]    ***   
       VIB_ALGORIT          IGEALG         STANDARD    [  0]    ***   
       VNATORB              IVNORB         OFF         [  0]    ***   
       VTRAN                IVTRAN         FULL/PARTIAL[  0]    ***   
       XFIELD               IXEFLD              0             x 10-6  
       XFORM_TOL            IXFTOL          10D- 11             ***   
       YFIELD               IYEFLD              0             x 10-6  
       ZFIELD               IZEFLD            ***             x 10-6  
       ZSCALE_EXP           IZEXPS         OFF         [  0]    ***   
    -------------------------------------------------------------------
   2 entries found in Z-matrix 
   Job Title : Carbon Monoxide DBOC calculation                                                
   There are  1 unique internal coordinates.
   Of these,  0 will be optimized.
   User supplied Z-matrix: 
--------------------------------------------------------------------------------
       SYMBOL    BOND      LENGTH    ANGLE     ANGLE     DIHED     ANGLE
                  TO      (ANGST)    WRT      (DEG)      WRT      (DEG)
--------------------------------------------------------------------------------
        C    
        O          1         r    
                  *Initial values for internal coordinates* 
                      Name             Value
                        r               1.6137931034
--------------------------------------------------------------------------------
  read isotopes from ZMAT file 
   Rotational constants (in cm-1): 
          0.8990346961             0.8990346961
   Rotational constants (in MHz): 
      26952.3859132538         26952.3859132538
********************************************************************************
   The full molecular point group is CXv .
   The largest Abelian subgroup of the full molecular point group is C2v .
   The computational point group is C2v .
********************************************************************************
--------------------------------------------------------------------------------
   Analysis of internal coordinates specified by Z-matrix 
--------------------------------------------------------------------------------
   *The nuclear repulsion energy is   15.739626564102563 a.u.
   *There is   1 degree of freedom within the tot. symm. molecular subspace.
   *Z-matrix requests optimization of   0 coordinates.
   *The optimization is constrained.
   *The following   1 parameters can have non-zero 
    derivatives within the totally symmetric subspace:
             r    [ 1]
   *The following   0 parameters are to be optimized:

   *The following coordinates must be varied in an  unconstrained optimization.
             r    [ 1]
--------------------------------------------------------------------------------


 ----------------------------------------------------------------
         Coordinates used in calculation (QCOMP) 
 ----------------------------------------------------------------
 Z-matrix   Atomic            Coordinates (in bohr)
  Symbol    Number           X              Y              Z
 ----------------------------------------------------------------
     C         6        -0.00000000     0.00000000     1.82974243
     O         8         0.00000000     0.00000000    -1.21988520
 ----------------------------------------------------------------
 
   Interatomic distance matrix (Angstroms) 
 
                 C             O    
                [ 1]        [ 2]
  C    [ 1]     0.00000
  O    [ 2]     1.61379     0.00000
 rotcon2
   Rotational constants (in cm-1): 
          0.8990346961             0.0000000000
   Rotational constants (in MHz): 
      26952.3859132538             0.0000000000
  ECPDATA file not present.   Using default ECPDATA. 
  @GTFLGS-I, Hessian will be transformed to curvilinear coordinates.
  There are  218 basis functions.
 @CHECKOUT-I, Total execution time (CPU/WALL):        0.25/       0.43 seconds.
--executable xjoda finished with status     0 in        0.47 seconds (walltime).
 --invoking executable--
/nfs/workspaces/public/cfour_mpi/bin/xvmol
 SERIAL VERSION OF MOLECULE STARTED
********************************************************************************
                    INPUT FROM MOL FILE
********************************************************************************
INTGRL        1    0    1    0    0    0    0    0    0                         
         *** CFOUR Program System (Release V0.1) ***                            
Carbon Monoxide DBOC calculation                                                
    2    2 X  Y       0.10E-08              0    0                              
   9999.00      3.00                                                            
          6.00000000    1    5    1    1    1    1    1                         
C #1  -0.000000000000000   0.000000000000000   1.829742431287448                
   16    9                                                                      
   33980.0000000000       9.100000000000000E-005 -1.900000000000000E-005        
  0.000000000000000E+000  0.000000000000000E+000  0.000000000000000E+000        
  0.000000000000000E+000  0.000000000000000E+000  0.000000000000000E+000        
  0.000000000000000E+000                                                        
   5089.00000000000       7.040000000000000E-004 -1.510000000000000E-004        
  0.000000000000000E+000  0.000000000000000E+000  0.000000000000000E+000        
  0.000000000000000E+000  0.000000000000000E+000  0.000000000000000E+000        
  0.000000000000000E+000                                                        
   1157.00000000000       3.693000000000000E-003 -7.850000000000000E-004        
  0.000000000000000E+000  0.000000000000000E+000  0.000000000000000E+000        
  0.000000000000000E+000  0.000000000000000E+000  0.000000000000000E+000        
  0.000000000000000E+000                                                        
   326.600000000000       1.536000000000000E-002 -3.324000000000000E-003        
  0.000000000000000E+000  0.000000000000000E+000  0.000000000000000E+000        
  0.000000000000000E+000  0.000000000000000E+000  0.000000000000000E+000        
  0.000000000000000E+000                                                        
   106.100000000000       5.292900000000000E-002 -1.151200000000000E-002        
  0.000000000000000E+000  0.000000000000000E+000  0.000000000000000E+000        
  0.000000000000000E+000  0.000000000000000E+000  0.000000000000000E+000        
  0.000000000000000E+000                                                        
   38.1100000000000       0.147043000000000      -3.416000000000000E-002        
  0.000000000000000E+000  0.000000000000000E+000  0.000000000000000E+000        
  0.000000000000000E+000  0.000000000000000E+000  0.000000000000000E+000        
  0.000000000000000E+000                                                        
   14.7500000000000       0.305631000000000      -7.717300000000001E-002        
  0.000000000000000E+000  0.000000000000000E+000  0.000000000000000E+000        
  0.000000000000000E+000  0.000000000000000E+000  0.000000000000000E+000        
  0.000000000000000E+000                                                        
   6.03500000000000       0.399345000000000      -0.141493000000000             
  0.000000000000000E+000  0.000000000000000E+000  0.000000000000000E+000        
  0.000000000000000E+000  0.000000000000000E+000  0.000000000000000E+000        
  0.000000000000000E+000                                                        
   2.53000000000000       0.217051000000000      -0.118019000000000             
  0.000000000000000E+000  0.000000000000000E+000  0.000000000000000E+000        
  0.000000000000000E+000  0.000000000000000E+000  0.000000000000000E+000        
  0.000000000000000E+000                                                        
  0.735500000000000       1.589400000000000E-002  0.273806000000000             
   1.00000000000000       0.000000000000000E+000  0.000000000000000E+000        
  0.000000000000000E+000  0.000000000000000E+000  0.000000000000000E+000        
  0.000000000000000E+000                                                        
  0.290500000000000      -3.084000000000000E-003  0.586510000000000             
  0.000000000000000E+000   1.00000000000000       0.000000000000000E+000        
  0.000000000000000E+000  0.000000000000000E+000  0.000000000000000E+000        
  0.000000000000000E+000                                                        
  0.111100000000000       9.779999999999999E-004  0.285430000000000             
  0.000000000000000E+000  0.000000000000000E+000   1.00000000000000             
  0.000000000000000E+000  0.000000000000000E+000  0.000000000000000E+000        
  0.000000000000000E+000                                                        
   7.21600000000000       0.000000000000000E+000  0.000000000000000E+000        
  0.000000000000000E+000  0.000000000000000E+000  0.000000000000000E+000        
   1.00000000000000       0.000000000000000E+000  0.000000000000000E+000        
  0.000000000000000E+000                                                        
   19.5700000000000       0.000000000000000E+000  0.000000000000000E+000        
  0.000000000000000E+000  0.000000000000000E+000  0.000000000000000E+000        
  0.000000000000000E+000   1.00000000000000       0.000000000000000E+000        
  0.000000000000000E+000                                                        
   53.0730000000000       0.000000000000000E+000  0.000000000000000E+000        
  0.000000000000000E+000  0.000000000000000E+000  0.000000000000000E+000        
  0.000000000000000E+000  0.000000000000000E+000   1.00000000000000             
  0.000000000000000E+000                                                        
  4.145000000000000E-002  0.000000000000000E+000  0.000000000000000E+000        
  0.000000000000000E+000  0.000000000000000E+000  0.000000000000000E+000        
  0.000000000000000E+000  0.000000000000000E+000  0.000000000000000E+000        
   1.00000000000000                                                             
   10    8                                                                      
   34.5100000000000       5.378000000000000E-003  0.000000000000000E+000        
  0.000000000000000E+000  0.000000000000000E+000  0.000000000000000E+000        
  0.000000000000000E+000  0.000000000000000E+000  0.000000000000000E+000        
   7.91500000000000       3.613200000000000E-002  0.000000000000000E+000        
  0.000000000000000E+000  0.000000000000000E+000  0.000000000000000E+000        
  0.000000000000000E+000  0.000000000000000E+000  0.000000000000000E+000        
   2.36800000000000       0.142493000000000       0.000000000000000E+000        
  0.000000000000000E+000  0.000000000000000E+000  0.000000000000000E+000        
  0.000000000000000E+000  0.000000000000000E+000  0.000000000000000E+000        
  0.813200000000000       0.342150000000000        1.00000000000000             
  0.000000000000000E+000  0.000000000000000E+000  0.000000000000000E+000        
  0.000000000000000E+000  0.000000000000000E+000  0.000000000000000E+000        
  0.289000000000000       0.463864000000000       0.000000000000000E+000        
   1.00000000000000       0.000000000000000E+000  0.000000000000000E+000        
  0.000000000000000E+000  0.000000000000000E+000  0.000000000000000E+000        
  0.100700000000000       0.250028000000000       0.000000000000000E+000        
  0.000000000000000E+000   1.00000000000000       0.000000000000000E+000        
  0.000000000000000E+000  0.000000000000000E+000  0.000000000000000E+000        
   8.18200000000000       0.000000000000000E+000  0.000000000000000E+000        
  0.000000000000000E+000  0.000000000000000E+000   1.00000000000000             
  0.000000000000000E+000  0.000000000000000E+000  0.000000000000000E+000        
   24.1860000000000       0.000000000000000E+000  0.000000000000000E+000        
  0.000000000000000E+000  0.000000000000000E+000  0.000000000000000E+000        
   1.00000000000000       0.000000000000000E+000  0.000000000000000E+000        
   71.4940000000000       0.000000000000000E+000  0.000000000000000E+000        
  0.000000000000000E+000  0.000000000000000E+000  0.000000000000000E+000        
  0.000000000000000E+000   1.00000000000000       0.000000000000000E+000        
  3.218000000000000E-002  0.000000000000000E+000  0.000000000000000E+000        
  0.000000000000000E+000  0.000000000000000E+000  0.000000000000000E+000        
  0.000000000000000E+000  0.000000000000000E+000   1.00000000000000             
    6    6                                                                      
   1.84800000000000        1.00000000000000       0.000000000000000E+000        
  0.000000000000000E+000  0.000000000000000E+000  0.000000000000000E+000        
  0.000000000000000E+000                                                        
  0.649000000000000       0.000000000000000E+000   1.00000000000000             
  0.000000000000000E+000  0.000000000000000E+000  0.000000000000000E+000        
  0.000000000000000E+000                                                        
  0.228000000000000       0.000000000000000E+000  0.000000000000000E+000        
   1.00000000000000       0.000000000000000E+000  0.000000000000000E+000        
  0.000000000000000E+000                                                        
   8.65600000000000       0.000000000000000E+000  0.000000000000000E+000        
  0.000000000000000E+000   1.00000000000000       0.000000000000000E+000        
  0.000000000000000E+000                                                        
   33.2130000000000       0.000000000000000E+000  0.000000000000000E+000        
  0.000000000000000E+000  0.000000000000000E+000   1.00000000000000             
  0.000000000000000E+000                                                        
  7.660000000000000E-002  0.000000000000000E+000  0.000000000000000E+000        
  0.000000000000000E+000  0.000000000000000E+000  0.000000000000000E+000        
   1.00000000000000                                                             
    4    4                                                                      
   1.41900000000000        1.00000000000000       0.000000000000000E+000        
  0.000000000000000E+000  0.000000000000000E+000                                
  0.485000000000000       0.000000000000000E+000   1.00000000000000             
  0.000000000000000E+000  0.000000000000000E+000                                
   24.6940000000000       0.000000000000000E+000  0.000000000000000E+000        
   1.00000000000000       0.000000000000000E+000                                
  0.187000000000000       0.000000000000000E+000  0.000000000000000E+000        
  0.000000000000000E+000   1.00000000000000                                     
    2    2                                                                      
   1.01100000000000        1.00000000000000       0.000000000000000E+000        
  0.424000000000000       0.000000000000000E+000   1.00000000000000             
          8.00000000    1    5    1    1    1    1    1                         
O #2   0.000000000000000   0.000000000000000  -1.219885195169320                
   16    9                                                                      
   61420.0000000000       9.000000000000001E-005 -2.000000000000000E-005        
  0.000000000000000E+000  0.000000000000000E+000  0.000000000000000E+000        
  0.000000000000000E+000  0.000000000000000E+000  0.000000000000000E+000        
  0.000000000000000E+000                                                        
   9199.00000000000       6.980000000000001E-004 -1.590000000000000E-004        
  0.000000000000000E+000  0.000000000000000E+000  0.000000000000000E+000        
  0.000000000000000E+000  0.000000000000000E+000  0.000000000000000E+000        
  0.000000000000000E+000                                                        
   2091.00000000000       3.664000000000000E-003 -8.290000000000000E-004        
  0.000000000000000E+000  0.000000000000000E+000  0.000000000000000E+000        
  0.000000000000000E+000  0.000000000000000E+000  0.000000000000000E+000        
  0.000000000000000E+000                                                        
   590.900000000000       1.521800000000000E-002 -3.508000000000000E-003        
  0.000000000000000E+000  0.000000000000000E+000  0.000000000000000E+000        
  0.000000000000000E+000  0.000000000000000E+000  0.000000000000000E+000        
  0.000000000000000E+000                                                        
   192.300000000000       5.242300000000000E-002 -1.215600000000000E-002        
  0.000000000000000E+000  0.000000000000000E+000  0.000000000000000E+000        
  0.000000000000000E+000  0.000000000000000E+000  0.000000000000000E+000        
  0.000000000000000E+000                                                        
   69.3200000000000       0.145921000000000      -3.626100000000000E-002        
  0.000000000000000E+000  0.000000000000000E+000  0.000000000000000E+000        
  0.000000000000000E+000  0.000000000000000E+000  0.000000000000000E+000        
  0.000000000000000E+000                                                        
   26.9700000000000       0.305258000000000      -8.299200000000000E-002        
  0.000000000000000E+000  0.000000000000000E+000  0.000000000000000E+000        
  0.000000000000000E+000  0.000000000000000E+000  0.000000000000000E+000        
  0.000000000000000E+000                                                        
   11.1000000000000       0.398508000000000      -0.152090000000000             
  0.000000000000000E+000  0.000000000000000E+000  0.000000000000000E+000        
  0.000000000000000E+000  0.000000000000000E+000  0.000000000000000E+000        
  0.000000000000000E+000                                                        
   4.68200000000000       0.216980000000000      -0.115331000000000             
  0.000000000000000E+000  0.000000000000000E+000  0.000000000000000E+000        
  0.000000000000000E+000  0.000000000000000E+000  0.000000000000000E+000        
  0.000000000000000E+000                                                        
   1.42800000000000       1.759400000000000E-002  0.288979000000000             
   1.00000000000000       0.000000000000000E+000  0.000000000000000E+000        
  0.000000000000000E+000  0.000000000000000E+000  0.000000000000000E+000        
  0.000000000000000E+000                                                        
  0.554700000000000      -2.502000000000000E-003  0.586128000000000             
  0.000000000000000E+000   1.00000000000000       0.000000000000000E+000        
  0.000000000000000E+000  0.000000000000000E+000  0.000000000000000E+000        
  0.000000000000000E+000                                                        
  0.206700000000000       9.540000000000000E-004  0.277624000000000             
  0.000000000000000E+000  0.000000000000000E+000   1.00000000000000             
  0.000000000000000E+000  0.000000000000000E+000  0.000000000000000E+000        
  0.000000000000000E+000                                                        
   12.9740000000000       0.000000000000000E+000  0.000000000000000E+000        
  0.000000000000000E+000  0.000000000000000E+000  0.000000000000000E+000        
   1.00000000000000       0.000000000000000E+000  0.000000000000000E+000        
  0.000000000000000E+000                                                        
   34.9000000000000       0.000000000000000E+000  0.000000000000000E+000        
  0.000000000000000E+000  0.000000000000000E+000  0.000000000000000E+000        
  0.000000000000000E+000   1.00000000000000       0.000000000000000E+000        
  0.000000000000000E+000                                                        
   93.8810000000000       0.000000000000000E+000  0.000000000000000E+000        
  0.000000000000000E+000  0.000000000000000E+000  0.000000000000000E+000        
  0.000000000000000E+000  0.000000000000000E+000   1.00000000000000             
  0.000000000000000E+000                                                        
  6.959000000000000E-002  0.000000000000000E+000  0.000000000000000E+000        
  0.000000000000000E+000  0.000000000000000E+000  0.000000000000000E+000        
  0.000000000000000E+000  0.000000000000000E+000  0.000000000000000E+000        
   1.00000000000000                                                             
   10    8                                                                      
   63.4200000000000       6.044000000000000E-003  0.000000000000000E+000        
  0.000000000000000E+000  0.000000000000000E+000  0.000000000000000E+000        
  0.000000000000000E+000  0.000000000000000E+000  0.000000000000000E+000        
   14.6600000000000       4.179900000000000E-002  0.000000000000000E+000        
  0.000000000000000E+000  0.000000000000000E+000  0.000000000000000E+000        
  0.000000000000000E+000  0.000000000000000E+000  0.000000000000000E+000        
   4.45900000000000       0.161143000000000       0.000000000000000E+000        
  0.000000000000000E+000  0.000000000000000E+000  0.000000000000000E+000        
  0.000000000000000E+000  0.000000000000000E+000  0.000000000000000E+000        
   1.53100000000000       0.356731000000000        1.00000000000000             
  0.000000000000000E+000  0.000000000000000E+000  0.000000000000000E+000        
  0.000000000000000E+000  0.000000000000000E+000  0.000000000000000E+000        
  0.530200000000000       0.448309000000000       0.000000000000000E+000        
   1.00000000000000       0.000000000000000E+000  0.000000000000000E+000        
  0.000000000000000E+000  0.000000000000000E+000  0.000000000000000E+000        
  0.175000000000000       0.244940000000000       0.000000000000000E+000        
  0.000000000000000E+000   1.00000000000000       0.000000000000000E+000        
  0.000000000000000E+000  0.000000000000000E+000  0.000000000000000E+000        
   14.4750000000000       0.000000000000000E+000  0.000000000000000E+000        
  0.000000000000000E+000  0.000000000000000E+000   1.00000000000000             
  0.000000000000000E+000  0.000000000000000E+000  0.000000000000000E+000        
   42.7300000000000       0.000000000000000E+000  0.000000000000000E+000        
  0.000000000000000E+000  0.000000000000000E+000  0.000000000000000E+000        
   1.00000000000000       0.000000000000000E+000  0.000000000000000E+000        
   126.140000000000       0.000000000000000E+000  0.000000000000000E+000        
  0.000000000000000E+000  0.000000000000000E+000  0.000000000000000E+000        
  0.000000000000000E+000   1.00000000000000       0.000000000000000E+000        
  5.348000000000000E-002  0.000000000000000E+000  0.000000000000000E+000        
  0.000000000000000E+000  0.000000000000000E+000  0.000000000000000E+000        
  0.000000000000000E+000  0.000000000000000E+000   1.00000000000000             
    6    6                                                                      
   3.77500000000000        1.00000000000000       0.000000000000000E+000        
  0.000000000000000E+000  0.000000000000000E+000  0.000000000000000E+000        
  0.000000000000000E+000                                                        
   1.30000000000000       0.000000000000000E+000   1.00000000000000             
  0.000000000000000E+000  0.000000000000000E+000  0.000000000000000E+000        
  0.000000000000000E+000                                                        
  0.444000000000000       0.000000000000000E+000  0.000000000000000E+000        
   1.00000000000000       0.000000000000000E+000  0.000000000000000E+000        
  0.000000000000000E+000                                                        
   14.9270000000000       0.000000000000000E+000  0.000000000000000E+000        
  0.000000000000000E+000   1.00000000000000       0.000000000000000E+000        
  0.000000000000000E+000                                                        
   57.5440000000000       0.000000000000000E+000  0.000000000000000E+000        
  0.000000000000000E+000  0.000000000000000E+000   1.00000000000000             
  0.000000000000000E+000                                                        
  0.154000000000000       0.000000000000000E+000  0.000000000000000E+000        
  0.000000000000000E+000  0.000000000000000E+000  0.000000000000000E+000        
   1.00000000000000                                                             
    4    4                                                                      
   2.66600000000000        1.00000000000000       0.000000000000000E+000        
  0.000000000000000E+000  0.000000000000000E+000                                
  0.859000000000000       0.000000000000000E+000   1.00000000000000             
  0.000000000000000E+000  0.000000000000000E+000                                
   26.4830000000000       0.000000000000000E+000  0.000000000000000E+000        
   1.00000000000000       0.000000000000000E+000                                
  0.324000000000000       0.000000000000000E+000  0.000000000000000E+000        
  0.000000000000000E+000   1.00000000000000                                     
    2    2                                                                      
   1.84600000000000        1.00000000000000       0.000000000000000E+000        
  0.714000000000000       0.000000000000000E+000   1.00000000000000             
FINISH                                                                          
 
********************************************************************************
 ONE- AND TWO-ELECTRON INTEGRALS OVER SYMMETRY-ADAPTED AOS ARE CALCULATED.

  SPHERICAL HARMONICS ARE USED.
  
  INTEGRALS LESS THAN  0.10E-13 ARE NEGLECTED.

  NUCLEAR REPULSION ENERGY :   15.7396265641 A.U.
  @MOLECU-I, ONE ELECTRON INTEGRALS (CPU/WALL):        0.06/       0.07 SECONDS.
  @TWOEL-I,    4426047 INTEGRALS OF SYMMETRY TYPE  I I I I
  @TWOEL-I,   19100471 INTEGRALS OF SYMMETRY TYPE  I J I J
  @TWOEL-I,   10056884 INTEGRALS OF SYMMETRY TYPE  I I J J
  @TWOEL-I,   14115049 INTEGRALS OF SYMMETRY TYPE  I J K L
  @TWOEL-I, TOTAL NUMBER OF 2-E INTEGRALS   47698451.
  @MOLECU-I, TWO ELECTRON INTEGRALS (CPU/WALL):      233.49/      43.99 SECONDS.
 @CHECKOUT-I, Total execution time (CPU/WALL):      233.58/      44.09 seconds.

Running with 14 threads/proc

--executable xvmol finished with status     0 in       44.14 seconds (walltime).
 --invoking executable--
/nfs/workspaces/public/cfour_mpi/bin/xvmol2ja
 @GETMEM-I,  Allocated    3814 MB of main memory.
 @CHECKOUT-I, Total execution time (CPU/WALL):        0.19/       1.15 seconds.
--executable xvmol2ja finished with status     0 in        1.20 seconds (walltime).
 --invoking executable--
/nfs/workspaces/public/cfour_mpi/bin/xvprop
 @GETMEM-I,  Allocated    3814 MB of main memory.
   Property integrals will be calculated.
    --------------------------------------------------------------
                                   Property evaluated at 
    Property type                X             Y             Z
    --------------------------------------------------------------
    Dipole moment               ----          ----          ----  
    Quadrupole moment           ----          ----          ----  
    Octopole moment             ----          ----          ----  
    Relativisitic corr.         ----          ----          ----  
    Second moment            0.0000000     0.0000000     0.0000000
    Electron density         0.0000000     0.0000000     1.8297424
    Electron density         0.0000000     0.0000000    -1.2198852
    Field gradient           0.0000000     0.0000000     1.8297424
    Field gradient           0.0000000     0.0000000    -1.2198852
    Potential                0.0000000     0.0000000     1.8297424
    Potential                0.0000000     0.0000000    -1.2198852
    --------------------------------------------------------------
 @CHECKOUT-I, Total execution time (CPU/WALL):        1.31/       1.32 seconds.
--executable xvprop finished with status     0 in        1.34 seconds (walltime).
 --invoking executable--
/nfs/workspaces/public/cfour_mpi/bin/xvscf
  There are  218 functions in the AO basis.

  There are 4 irreducible representations.

       Irrep        # of functions
         1                 86
         2                 52
         3                 52
         4                 28


  Parameters for SCF calculation: 
        SCF reference function:  RHF  
  Maximum number of iterations:  150
     Full symmetry point group: CXv 
     Computational point group: C2v 
        Initial density matrix: MOREAD                 
     SCF convergence tolerance: 10**(-10)
  DIIS convergence acceleration:  ON
          Latest start for DIIS:   8
                     DIIS order:   6

  Memory information:    2523578 words required.
  Fock matrices are constructed from AO integral file.
 @GETMEM-I,  Allocated      19 MB of main memory.
  Initialization and symmetry analysis required      0.002 seconds.

  Adding electric field perturbation to one-electron Hamiltonian.
  Field direction     : Z
  Field strength      : -0.0002000 a.u.

  @INITGES-I, Occupancies from core Hamiltonian:

          Alpha population by irrep:   5    1    1    0
           Beta population by irrep:   5    1    1    0


 total no. of electrons in initial guess :  0.000000000000000E+000
  --------------------------------------------------------------------
  Iteration         Total Energy            Largest Density Difference
  --------------------------------------------------------------------
       0            15.739870438707223              0.0000000000D+00
   current occupation vector 
     5  1  1  0
     5  1  1  0
       1           -93.610255678167121              0.1755144636D+02
   current occupation vector 
     5  1  1  0
     5  1  1  0
       2           -97.972036032501620              0.1755143218D+02
   current occupation vector 
     5  1  1  0
     5  1  1  0
       3          -100.321728616997319              0.6728144537D+01
   current occupation vector 
     5  1  1  0
     5  1  1  0
       4           -95.183618339270836              0.6724145868D+01
   current occupation vector 
     5  1  1  0
     5  1  1  0
       5          -100.228110301974866              0.6980472887D+01
   current occupation vector 
     5  1  1  0
     5  1  1  0
       6           -94.990381553253243              0.6980872536D+01
   current occupation vector 
     5  1  1  0
     5  1  1  0
       7          -100.219360231273711              0.6994293863D+01
   current occupation vector 
     5  1  1  0
     5  1  1  0
       8           -94.984394900201877              0.6994318997D+01
   current occupation vector 
     5  1  1  0
     5  1  1  0
       9          -107.423463197497483              0.5879333833D+01
   current occupation vector 
     5  1  1  0
     5  1  1  0
      10          -110.573509600011505              0.1328527905D+01
   current occupation vector 
     5  1  1  0
     5  1  1  0
      11          -112.378648970704219              0.1045007225D+01
   current occupation vector 
     5  1  1  0
     5  1  1  0
      12          -112.503032182208230              0.4923878424D+00
   current occupation vector 
     5  1  1  0
     5  1  1  0
      13          -112.519911361754325              0.1266518988D+00
   current occupation vector 
     5  1  1  0
     5  1  1  0
      14          -112.525055862341148              0.8290514157D-01
   current occupation vector 
     5  1  1  0
     5  1  1  0
      15          -112.525436073391759              0.2401299964D-01
   current occupation vector 
     5  1  1  0
     5  1  1  0
      16          -112.525767166316243              0.3424845413D-01
   current occupation vector 
     5  1  1  0
     5  1  1  0
      17          -112.525894665469920              0.2434894437D-01
   current occupation vector 
     5  1  1  0
     5  1  1  0
      18          -112.525921063312538              0.1448832599D-01
   current occupation vector 
     5  1  1  0
     5  1  1  0
      19          -112.525921297146525              0.1253963217D-02
   current occupation vector 
     5  1  1  0
     5  1  1  0
      20          -112.525921298889031              0.7886078266D-04
   current occupation vector 
     5  1  1  0
     5  1  1  0
      21          -112.525921298994959              0.1532608099D-04
   current occupation vector 
     5  1  1  0
     5  1  1  0
      22          -112.525921298995840              0.2155338619D-05
   current occupation vector 
     5  1  1  0
     5  1  1  0
      23          -112.525921298996607              0.3418585721D-06
   current occupation vector 
     5  1  1  0
     5  1  1  0
      24          -112.525921298996465              0.1703327248D-06
   current occupation vector 
     5  1  1  0
     5  1  1  0
      25          -112.525921298997602              0.5144653481D-08
   current occupation vector 
     5  1  1  0
     5  1  1  0
      26          -112.525921298996579              0.3744269339D-08
   current occupation vector 
     5  1  1  0
     5  1  1  0
      27          -112.525921298996437              0.5410488724D-08
   current occupation vector 
     5  1  1  0
     5  1  1  0
      28          -112.525921298996238              0.1855198439D-08
   current occupation vector 
     5  1  1  0
     5  1  1  0

  SCF has converged.

 Density matrix saved to file den.dat
 total electron number:   13.9999999999998     
     E(SCF)=      -112.525921298996153              0.2776712194D-10

  Eigenvector printing suppressed.

 @PUTMOS-I, Writing converged MOs to NEWMOS. 
 @PUTMOS-I, Symmetry   1 Full Blocks 21 Partial Blocksize   2
 @PUTMOS-I, Symmetry   2 Full Blocks 13 Partial Blocksize   0
 @PUTMOS-I, Symmetry   3 Full Blocks 13 Partial Blocksize   0
 @PUTMOS-I, Symmetry   4 Full Blocks  7 Partial Blocksize   0
 @PUTFOCK-I, Writing converged Fock matrix to NEWFOCK. 
 @PUTFOCK-I, Symmetry   1 Full Blocks 21 Partial Blocksize   2
 @PUTFOCK-I, Symmetry   2 Full Blocks 13 Partial Blocksize   0
 @PUTFOCK-I, Symmetry   3 Full Blocks 13 Partial Blocksize   0
 @PUTFOCK-I, Symmetry   4 Full Blocks  7 Partial Blocksize   0


 
  ORBITAL EIGENVALUES (ALPHA)  (1H = 27.2113834 eV)

       MO #        E(hartree)               E(eV)           FULLSYM    COMPSYM
       ----   --------------------   --------------------   -------   ---------
    1     1         -20.6439374752        -561.7500975231     SG+        A1 (1)
    2     2         -11.5248686537        -313.6076195709     SG+        A1 (1)
    3     3          -1.2723288852         -34.6218291057     SG+        A1 (1)
    4     4          -0.8062982009         -21.9404894784     SG+        A1 (1)
    5     5          -0.5276041672         -14.3568392764     SG+        A1 (1)
    6    87          -0.4950862537         -13.4719818667      PI        B1 (2)
    7   139          -0.4950862537         -13.4719818667      PI        B2 (3)
  +++++++++++++++++++++++++++++++++++++++++++++++++++++++++++++++++++++++++++++
    8   140          -0.0093798091          -0.2552375819      PI        B2 (3)
    9    88          -0.0093798091          -0.2552375819      PI        B1 (2)
   10     6           0.0585219777           1.5924639732     SG+        A1 (1)
   11     7           0.0691488325           1.8816353931     SG+        A1 (1)
   12   141           0.0811669291           2.2086644279      PI        B2 (3)
   13    89           0.0811669291           2.2086644279      PI        B1 (2)
   14     8           0.1573018600           4.2804012207     SG+        A1 (1)
   15   142           0.1805729752           4.9136404604      PI        B2 (3)
   16    90           0.1805729752           4.9136404604      PI        B1 (2)
   17     9           0.1939918297           5.2787860552     SG+        A1 (1)
   18   191           0.2213087936           6.0221184337      DE        A2 (4)
   19    10           0.2213087936           6.0221184337      DE        A1 (1)
   20   143           0.2838933093           7.7251296851      PI        B2 (3)
   21    91           0.2838933093           7.7251296851      PI        B1 (2)
   22    11           0.3007862498           8.1848099653     SG+        A1 (1)
   23    12           0.3085769111           8.3968046357     SG+        A1 (1)
   24    92           0.4054387788          11.0325500563      PI        B1 (2)
   25   144           0.4054387788          11.0325500563      PI        B2 (3)
   26    13           0.4174496228          11.3593817375     SG+        A1 (1)
   27    14           0.5139749647          13.9859698238     SG+        A1 (1)
   28    15           0.5502502646          14.9730709162      DE        A1 (1)
   29   192           0.5502502646          14.9730709162      DE        A2 (4)
   30   145           0.6234088854          16.9638181949      PI        B2 (3)
   31    93           0.6234088854          16.9638181949      PI        B1 (2)
   32    16           0.7036162972          19.1463728285     SG+        A1 (1)
   33    94           0.7303406507          19.8735794583      PH        B1 (2)
   34   146           0.7303406507          19.8735794583      PH        B2 (3)
   35   193           0.7371620891          20.0592002336      DE        A2 (4)
   36    17           0.7371620891          20.0592002336      DE        A1 (1)
   37    95           0.7746503777          21.0793084286      PI        B1 (2)
   38   147           0.7746503777          21.0793084286      PI        B2 (3)
   39    18           0.8170819198          22.2339293891     SG+        A1 (1)
   40    19           0.8573498062          23.3296742850      DE        A1 (1)
   41   194           0.8573498062          23.3296742850      DE        A2 (4)
   42   148           0.8812281965          23.9794383185      PI        B2 (3)
   43    96           0.8812281965          23.9794383185      PI        B1 (2)
   44    20           0.8881745005          24.1684568590     SG+        A1 (1)
   45    97           1.0420421047          28.3554072291      PI        B1 (2)
   46   149           1.0420421047          28.3554072291      PI        B2 (3)
   47    21           1.1351600267          30.8892747081     SG+        A1 (1)
   48    22           1.3556926087          36.8902713488     SG+        A1 (1)
   49    98           1.4204964342          38.6536730897      PH        B1 (2)
   50   150           1.4204964342          38.6536730897      PH        B2 (3)
   51   151           1.4822306931          40.3335476775      PI        B2 (3)
   52    99           1.4822306931          40.3335476775      PI        B1 (2)
   53    23           1.5861029204          43.1600546789      DE        A1 (1)
   54   195           1.5861029204          43.1600546789      DE        A2 (4)
   55    24           1.5875801639          43.2002525169     SG+        A1 (1)
   56   152           1.6390697806          44.6013562194      PI        B2 (3)
   57   100           1.6390697806          44.6013562194      PI        B1 (2)
   58    25           1.6737252908          45.5443805949      DE        A1 (1)
   59   196           1.6737252908          45.5443805949      DE        A2 (4)
   60    26           1.9199321082          52.2440086976     SG+        A1 (1)
   61    27           1.9403711165          52.8001823883     SG+        A1 (1)
   62   153           2.0640841400          56.1665849047      PI        B2 (3)
   63   101           2.0640841400          56.1665849047      PI        B1 (2)
   64    28           2.0656674348          56.2096685459      PI        A1 (1)
   65   197           2.0656674348          56.2096685459      PI        A2 (4)
   66   198           2.1233869711          57.7802969765      DE        A2 (4)
   67    29           2.1233869711          57.7802969765      DE        A1 (1)
   68   154           2.1968819344          59.7801966027      PH        B2 (3)
   69   102           2.1968819344          59.7801966027      PH        B1 (2)
   70   103           2.2072313804          60.0618193442      PH        B1 (2)
   71   155           2.2072313804          60.0618193442      PH        B2 (3)
   72    30           2.2181104082          60.3578527424     SG+        A1 (1)
   73   104           2.2188583175          60.3782043885      PI        B1 (2)
   74   156           2.2188583175          60.3782043885      PI        B2 (3)
   75    31           2.2804345527          62.0537789316      DE        A1 (1)
   76   199           2.2804345527          62.0537789316      DE        A2 (4)
   77    32           2.3881984774          64.9861844035     SG+        A1 (1)
   78   157           2.5022818282          68.0905502009      PI        B2 (3)
   79   105           2.5022818282          68.0905502009      PI        B1 (2)
   80   158           2.5994929238          70.7357985939      PI        B2 (3)
   81   106           2.5994929238          70.7357985939      PI        B1 (2)
   82    33           2.6237559574          71.3960293045      DE        A1 (1)
   83   200           2.6237559574          71.3960293045      DE        A2 (4)
   84    34           2.6431156046          71.9228320876     SG+        A1 (1)
   85    35           2.8942290884          78.7559773711     SG+        A1 (1)
   86   159           3.3654178764          91.5776761369      PI        B2 (3)
   87   107           3.3654178764          91.5776761369      PI        B1 (2)
   88   201           3.7109605775         100.9803710579      PI        A2 (4)
   89    36           3.7109605775         100.9803710579      PI        A1 (1)
   90    37           3.8843467229         105.6984479353     SG+        A1 (1)
   91   160           3.9042009928         106.2387100866      PH        B2 (3)
   92   108           3.9042009928         106.2387100866      PH        B1 (2)
   93    38           4.1032161274         111.6541872154     SG+        A1 (1)
   94   109           4.1411012524         112.6850938777      PH        B1 (2)
   95   161           4.1411012524         112.6850938777      PH        B2 (3)
   96   162           4.1543679864         113.0461000638      PI        B2 (3)
   97   110           4.1543679864         113.0461000638      PI        B1 (2)
   98   202           4.1731290698         113.5566150950      DE        A2 (4)
   99    39           4.1731290698         113.5566150950      DE        A1 (1)
  100   203           4.2975393874         116.9419919470      DE        A2 (4)
  101    40           4.2975393874         116.9419919470      DE        A1 (1)
  102    41           4.3843721823         119.3048324220     SG+        A1 (1)
  103   163           4.5175387993         122.9284802930      PI        B2 (3)
  104   111           4.5175387993         122.9284802930      PI        B1 (2)
  105   204           4.6528636346         126.6108562681      DE        A2 (4)
  106    42           4.6528636346         126.6108562681      DE        A1 (1)
  107    43           4.8043777850         130.7337659070     SG+        A1 (1)
  108   112           5.1292268420         139.5733581423      PI        B1 (2)
  109   164           5.1292268420         139.5733581423      PI        B2 (3)
  110    44           5.1781938954         140.9058194064     SG+        A1 (1)
  111   113           5.3480134956         145.5268456565      PI        B1 (2)
  112   165           5.3480134956         145.5268456566      PI        B2 (3)
  113    45           5.8229015681         158.4492070712      PI        A1 (1)
  114   205           5.8229015681         158.4492070712      PI        A2 (4)
  115   166           5.8939137562         160.3815469466      PH        B2 (3)
  116   114           5.8939137562         160.3815469466      PH        B1 (2)
  117    46           6.0205742900         163.8281552939     SG+        A1 (1)
  118   206           6.0847950170         165.5756901189      DE        A2 (4)
  119    47           6.0847950170         165.5756901189      DE        A1 (1)
  120   115           6.1200150539         166.5340760465      PI        B1 (2)
  121   167           6.1200150539         166.5340760465      PI        B2 (3)
  122    48           6.1740780275         168.0052043481     SG+        A1 (1)
  123   207           6.2923141589         171.2225730508      DE        A2 (4)
  124    49           6.2923141589         171.2225730508      DE        A1 (1)
  125   116           6.3486706538         172.7561112399      PH        B1 (2)
  126   168           6.3486706538         172.7561112399      PH        B2 (3)
  127    50           6.4820105833         176.3844751858      DE        A1 (1)
  128   208           6.4820105833         176.3844751858      DE        A2 (4)
  129   117           6.7640694012         184.0596858201      PI        B1 (2)
  130   169           6.7640694012         184.0596858201      PI        B2 (3)
  131    51           7.0822207381         192.7170238276     SG+        A1 (1)
  132   118           7.1892928341         195.6306036838      PI        B1 (2)
  133   170           7.1892928341         195.6306036838      PI        B2 (3)
  134    52           7.7222446443         210.1329597248     SG+        A1 (1)
  135    53           9.5072726495         258.7060411535     SG+        A1 (1)
  136   119           9.6967344750         263.8615595261      PI        B1 (2)
  137   171           9.6967344750         263.8615595262      PI        B2 (3)
  138    54          10.6599030503         290.0707089083      PI        A1 (1)
  139   209          10.6599030503         290.0707089083      PI        A2 (4)
  140    55          10.6793779245         290.6006471765     SG+        A1 (1)
  141   172          10.7336658307         292.0778962054      PH        B2 (3)
  142   120          10.7336658307         292.0778962054      PH        B1 (2)
  143    56          10.9544619256         298.0860633975      DE        A1 (1)
  144   210          10.9544619256         298.0860633975      DE        A2 (4)
  145   121          10.9782029392         298.7320892222      PI        B1 (2)
  146   173          10.9782029392         298.7320892222      PI        B2 (3)
  147    57          11.1525067434         303.4751368659     SG+        A1 (1)
  148   122          11.8964217251         323.7180926501      PH        B1 (2)
  149   174          11.8964217251         323.7180926501      PH        B2 (3)
  150   211          11.9857279653         326.1482389927      DE        A2 (4)
  151    58          11.9857279653         326.1482389927      DE        A1 (1)
  152   175          12.3114405315         335.0113285099      PI        B2 (3)
  153   123          12.3114405315         335.0113285099      PI        B1 (2)
  154    59          12.5574103369         341.7045071897     SG+        A1 (1)
  155   212          12.7258664207         346.2884302718      DE        A2 (4)
  156    60          12.7258664207         346.2884302718      DE        A1 (1)
  157   176          13.1071480816         356.6636317293      PI        B2 (3)
  158   124          13.1071480816         356.6636317293      PI        B1 (2)
  159    61          13.4573022648         366.1918114564     SG+        A1 (1)
  160    62          17.3131601064         471.1150375211     SG+        A1 (1)
  161   125          18.7046546290         508.9795284754      PI        B1 (2)
  162   177          18.7046546290         508.9795284757      PI        B2 (3)
  163    63          19.5921531009         533.1295896612     SG+        A1 (1)
  164   213          26.2506568539         714.3166881543      DE        A2 (4)
  165    64          26.2506568539         714.3166881543      DE        A1 (1)
  166   126          26.5297891837         721.9122649995      PI        B1 (2)
  167   178          26.5297891837         721.9122649995      PI        B2 (3)
  168    65          26.9868534003         734.3496146364     SG+        A1 (1)
  169   127          33.4034374158         908.9537423981      PI        B1 (2)
  170   179          33.4034374158         908.9537423984      PI        B2 (3)
  171    66          34.2966085810         933.2581654160     SG+        A1 (1)
  172    67          35.5515464261         967.4067602632     SG+        A1 (1)
  173   214          47.0742813487        1280.9563180601      DE        A2 (4)
  174    68          47.0742813487        1280.9563180601      DE        A1 (1)
  175   128          47.2632245124        1286.0977229262      PI        B1 (2)
  176   180          47.2632245124        1286.0977229262      PI        B2 (3)
  177    69          47.4669429604        1291.6411837205     SG+        A1 (1)
  178    70          63.7370090120        1734.3721889946     SG+        A1 (1)
  179   129          66.2917843125        1803.8911591979      PI        B1 (2)
  180   181          66.2917843125        1803.8911591981      PI        B2 (3)
  181    71          66.9472929956        1821.7284572967     SG+        A1 (1)
  182   182          98.5039360974        2680.4283715547      PH        B2 (3)
  183   130          98.5039360974        2680.4283715547      PH        B1 (2)
  184    72          98.5178078768        2680.8058418640      DE        A1 (1)
  185   215          98.5178078768        2680.8058418640      DE        A2 (4)
  186   183          98.5308265691        2681.1600984910      PI        B2 (3)
  187   131          98.5308265691        2681.1600984910      PI        B1 (2)
  188    73          98.5401059338        2681.4126028416     SG+        A1 (1)
  189    74         103.3125082416        2811.2762717776      DE        A1 (1)
  190   216         103.3125082416        2811.2762717789      DE        A2 (4)
  191   132         103.3146406306        2811.3342970337      PH        B1 (2)
  192   184         103.3146406306        2811.3342970337      PH        B2 (3)
  193   133         103.3353588123        2811.8980674187      PI        B1 (2)
  194   185         103.3353588123        2811.8980674187      PI        B2 (3)
  195    75         103.3444066431        2812.1442714104     SG+        A1 (1)
  196   217         114.9547242154        3128.0770742672      DE        A2 (4)
  197    76         114.9547242154        3128.0770742672      DE        A1 (1)
  198   186         115.0906120826        3131.7747711192      PI        B2 (3)
  199   134         115.0906120826        3131.7747711192      PI        B1 (2)
  200    77         115.2981013989        3137.4208424572     SG+        A1 (1)
  201   135         116.7112077708        3175.8734217276      PI        B1 (2)
  202   187         116.7112077708        3175.8734217280      PI        B2 (3)
  203    78         117.4376985145        3195.6422398925     SG+        A1 (1)
  204    79         121.8322873463        3315.2250814788     SG+        A1 (1)
  205   218         198.5568380932        5403.0062480470      DE        A2 (4)
  206    80         198.5568380932        5403.0062480471      DE        A1 (1)
  207   188         198.6598791549        5405.8101378812      PI        B2 (3)
  208   136         198.6598791549        5405.8101378813      PI        B1 (2)
  209    81         198.7646315330        5408.6605950046     SG+        A1 (1)
  210    82         216.2619256676        5884.7861741621     SG+        A1 (1)
  211   137         224.7752594911        6116.4457648479      PI        B1 (2)
  212   189         224.7752594911        6116.4457648481      PI        B2 (3)
  213    83         225.2926736229        6130.5253191640     SG+        A1 (1)
  214   138         395.2462458872       10755.1971342462      PI        B1 (2)
  215   190         395.2462458872       10755.1971342469      PI        B2 (3)
  216    84         395.8104922457       10770.5510582418     SG+        A1 (1)
  217    85         508.5724840109       13838.9608491110     SG+        A1 (1)
  218    86         895.0751034794       24356.2318125723     SG+        A1 (1)


  VSCF finished.

 @CHECKOUT-I, Total execution time (CPU/WALL):       47.58/      10.22 seconds.
--executable xvscf finished with status     0 in       10.26 seconds (walltime).
 --invoking executable--
/nfs/workspaces/public/cfour_mpi/bin/xvtran
 @GETMEM-I,  Allocated    3814 MB of main memory.
  Full RHF integral transformation
  Transformation of IIII integrals :
  1 pass through the AO integral file was required.
     4426047 AO integrals were read.
     8600144 MO integrals were written to HF2.
  Transformation of IIJJ integrals :
  1 pass through the AO integral file was required.
    10056884 AO integrals were read.
    14365562 MO integrals were written to HF2.
  Transformation of IJIJ integrals :
  1 pass through the AO integral file was required.
    19100471 AO integrals were read.
    26709209 MO integrals were written to HF2.
  Transformation of IJKL integrals :
  1 pass through the AO integral file was required.
    14115049 AO integrals were read.
    18072111 MO integrals were written to HF2.
  Summary of active molecular orbitals: 
------------------------------------------------------------------------
 
  Index      Eigenvalue    Symmetry    Index      Eigenvalue    Symmetry
------------------------------------------------------------------------
     1       -20.6439375        1       110         4.1411013        2
     2       -11.5248687        1       111         4.1543680        2
     3        -1.2723289        1       112         4.5175388        2
     4        -0.8062982        1       113         5.1292268        2
     5        -0.5276042        1       114         5.3480135        2
     6        -0.4950863        2       115         5.8939138        2
     7        -0.4950863        3       116         6.1200151        2
     8         0.0585220        1       117         6.3486707        2
     9         0.0691488        1       118         6.7640694        2
    10         0.1573019        1       119         7.1892928        2
    11         0.1939918        1       120         9.6967345        2
    12         0.2213088        1       121        10.7336658        2
    13         0.3007862        1       122        10.9782029        2
    14         0.3085769        1       123        11.8964217        2
    15         0.4174496        1       124        12.3114405        2
    16         0.5139750        1       125        13.1071481        2
    17         0.5502503        1       126        18.7046546        2
    18         0.7036163        1       127        26.5297892        2
    19         0.7371621        1       128        33.4034374        2
    20         0.8170819        1       129        47.2632245        2
    21         0.8573498        1       130        66.2917843        2
    22         0.8881745        1       131        98.5039361        2
    23         1.1351600        1       132        98.5308266        2
    24         1.3556926        1       133       103.3146406        2
    25         1.5861029        1       134       103.3353588        2
    26         1.5875802        1       135       115.0906121        2
    27         1.6737253        1       136       116.7112078        2
    28         1.9199321        1       137       198.6598792        2
    29         1.9403711        1       138       224.7752595        2
    30         2.0656674        1       139       395.2462459        2
    31         2.1233870        1       140        -0.0093798        3
    32         2.2181104        1       141         0.0811669        3
    33         2.2804346        1       142         0.1805730        3
    34         2.3881985        1       143         0.2838933        3
    35         2.6237560        1       144         0.4054388        3
    36         2.6431156        1       145         0.6234089        3
    37         2.8942291        1       146         0.7303407        3
    38         3.7109606        1       147         0.7746504        3
    39         3.8843467        1       148         0.8812282        3
    40         4.1032161        1       149         1.0420421        3
    41         4.1731291        1       150         1.4204964        3
    42         4.2975394        1       151         1.4822307        3
    43         4.3843722        1       152         1.6390698        3
    44         4.6528636        1       153         2.0640841        3
    45         4.8043778        1       154         2.1968819        3
    46         5.1781939        1       155         2.2072314        3
    47         5.8229016        1       156         2.2188583        3
    48         6.0205743        1       157         2.5022818        3
    49         6.0847950        1       158         2.5994929        3
    50         6.1740780        1       159         3.3654179        3
    51         6.2923142        1       160         3.9042010        3
    52         6.4820106        1       161         4.1411013        3
    53         7.0822207        1       162         4.1543680        3
    54         7.7222446        1       163         4.5175388        3
    55         9.5072726        1       164         5.1292268        3
    56        10.6599031        1       165         5.3480135        3
    57        10.6793779        1       166         5.8939138        3
    58        10.9544619        1       167         6.1200151        3
    59        11.1525067        1       168         6.3486707        3
    60        11.9857280        1       169         6.7640694        3
    61        12.5574103        1       170         7.1892928        3
    62        12.7258664        1       171         9.6967345        3
    63        13.4573023        1       172        10.7336658        3
    64        17.3131601        1       173        10.9782029        3
    65        19.5921531        1       174        11.8964217        3
    66        26.2506569        1       175        12.3114405        3
    67        26.9868534        1       176        13.1071481        3
    68        34.2966086        1       177        18.7046546        3
    69        35.5515464        1       178        26.5297892        3
    70        47.0742813        1       179        33.4034374        3
    71        47.4669430        1       180        47.2632245        3
    72        63.7370090        1       181        66.2917843        3
    73        66.9472930        1       182        98.5039361        3
    74        98.5178079        1       183        98.5308266        3
    75        98.5401059        1       184       103.3146406        3
    76       103.3125082        1       185       103.3353588        3
    77       103.3444066        1       186       115.0906121        3
    78       114.9547242        1       187       116.7112078        3
    79       115.2981014        1       188       198.6598792        3
    80       117.4376985        1       189       224.7752595        3
    81       121.8322873        1       190       395.2462459        3
    82       198.5568381        1       191         0.2213088        4
    83       198.7646315        1       192         0.5502503        4
    84       216.2619257        1       193         0.7371621        4
    85       225.2926736        1       194         0.8573498        4
    86       395.8104922        1       195         1.5861029        4
    87       508.5724840        1       196         1.6737253        4
    88       895.0751035        1       197         2.0656674        4
    89        -0.0093798        2       198         2.1233870        4
    90         0.0811669        2       199         2.2804346        4
    91         0.1805730        2       200         2.6237560        4
    92         0.2838933        2       201         3.7109606        4
    93         0.4054388        2       202         4.1731291        4
    94         0.6234089        2       203         4.2975394        4
    95         0.7303407        2       204         4.6528636        4
    96         0.7746504        2       205         5.8229016        4
    97         0.8812282        2       206         6.0847950        4
    98         1.0420421        2       207         6.2923142        4
    99         1.4204964        2       208         6.4820106        4
   100         1.4822307        2       209        10.6599031        4
   101         1.6390698        2       210        10.9544619        4
   102         2.0640841        2       211        11.9857280        4
   103         2.1968819        2       212        12.7258664        4
   104         2.2072314        2       213        26.2506569        4
   105         2.2188583        2       214        47.0742813        4
   106         2.5022818        2       215        98.5178079        4
   107         2.5994929        2       216       103.3125082        4
   108         3.3654179        2       217       114.9547242        4
   109         3.9042010        2       218       198.5568381        4
------------------------------------------------------------------------
  -20.6439374751919       -11.5248686537144       -1.27232888518568     
 -0.806298200861148      -0.527604167173624      -0.495086253745521     
 -0.495086253745491       5.852197772605849E-002  6.914883251059824E-002
  0.157301859953031       0.193991829726985       0.221308793648035     
  0.300786249820138       0.308576911077080       0.417449622846213     
  0.513974964748894       0.550250264609435       0.703616297160579     
  0.737162089067212       0.817081919806746       0.857349806222401     
  0.888174500492399        1.13516002674291        1.35569260873199     
   1.58610292040233        1.58758016385589        1.67372529082362     
   1.91993210817814        1.94037111646180        2.06566743482571     
   2.12338697107414        2.21811040824772        2.28043455268098     
   2.38819847738885        2.62375595738588        2.64311560461024     
   2.89422908837246        3.71096057754745        3.88434672289778     
   4.10321612738584        4.17312906976148        4.29753938739475     
   4.38437218234087        4.65286363456604        4.80437778503262     
   5.17819389536818        5.82290156814274        6.02057429002105     
   6.08479501703231        6.17407802750911        6.29231415888920     
   6.48201058332861        7.08222073809014        7.72224464430747     
   9.50727264948495        10.6599030502921        10.6793779244810     
   10.9544619255728        11.1525067434056        11.9857279653308     
[...]
 Convergence information after    15 iterations: 
 Largest element of residual vector : -0.12230191E-05.
 Largest element of DIIS residual   : -0.66306545E-06.
 Convergence information after    16 iterations: 
 Largest element of residual vector : -0.65868900E-06.
 Largest element of DIIS residual   : -0.22888307E-06.
 Convergence information after    17 iterations: 
 Largest element of residual vector : -0.30254393E-06.
 Largest element of DIIS residual   : -0.14707066E-06.
 Convergence information after    18 iterations: 
 Largest element of residual vector : -0.77845656E-07.
 Largest element of DIIS residual   : -0.29003865E-07.
 Perturbed amplitude equations converged in    18 iterations.
  Dominant contributions to perturbed wavefunction:
    7    7  140   45  -0.2351834667 ABAB
    7    7   45  140  -0.2351834667 ABAB
    7    7  140   22  -0.2193823069 ABAB
    7    7   22  140  -0.2193823069 ABAB
    7    7  140   39  -0.1960604742 ABAB
    7    7   39  140  -0.1960604742 ABAB
    7    0   36    0   0.1859974803 AA  
    7    7  140   28   0.1820502738 ABAB
    7    7   28  140   0.1820502738 ABAB
    7    7  140   57  -0.1592400128 ABAB
    7    7   57  140  -0.1592400128 ABAB
    7    0   45    0   0.1572510997 AA  
    7    7  140   32  -0.1570476116 ABAB
    7    7   32  140  -0.1570476116 ABAB
    7    0   39    0   0.1514813871 AA  
    7    7  140   29  -0.1504980045 ABAB
    7    7   29  140  -0.1504980045 ABAB
    7    0   22    0   0.1477799588 AA  
    7    6   45   89  -0.1466113093 ABAB
    6    7   89   45  -0.1466113093 ABAB
  norm of converged amps    1.64345132542034     
 Starting iterative solution of the perturbed Lambda equations.
 The DIIS procedure is used to accelerate convergence.
 Convergence criterion is 10**(-7).
 Maximum number of iterations is 100.
 Convergence information after     1 iterations: 
 Largest element of residual vector :  0.78387783E-01.
 Largest element of DIIS residual   :  0.78387783E-01.
 Convergence information after     2 iterations: 
 Largest element of residual vector :  0.17172566E-01.
 Largest element of DIIS residual   :  0.13030346E-01.
 Convergence information after     3 iterations: 
 Largest element of residual vector :  0.70506847E-02.
 Largest element of DIIS residual   : -0.62566197E-02.
 Convergence information after     4 iterations: 
 Largest element of residual vector : -0.36942586E-02.
 Largest element of DIIS residual   : -0.33767350E-02.
 Convergence information after     5 iterations: 
 Largest element of residual vector : -0.32832064E-02.
 Largest element of DIIS residual   : -0.26887567E-02.
 Convergence information after     6 iterations: 
 Largest element of residual vector : -0.17631256E-02.
 Largest element of DIIS residual   : -0.78445655E-03.
 Convergence information after     7 iterations: 
 Largest element of residual vector : -0.82844255E-03.
 Largest element of DIIS residual   : -0.41048295E-03.
 Convergence information after     8 iterations: 
 Largest element of residual vector : -0.30041419E-03.
 Largest element of DIIS residual   : -0.18980662E-03.
 Convergence information after     9 iterations: 
 Largest element of residual vector : -0.13068310E-03.
 Largest element of DIIS residual   : -0.74247348E-04.
 Convergence information after    10 iterations: 
 Largest element of residual vector : -0.65700618E-04.
 Largest element of DIIS residual   : -0.31961286E-04.
 Convergence information after    11 iterations: 
 Largest element of residual vector : -0.15680705E-04.
 Largest element of DIIS residual   : -0.65032739E-05.
 Convergence information after    12 iterations: 
 Largest element of residual vector : -0.59090627E-05.
 Largest element of DIIS residual   : -0.36267693E-05.
 Convergence information after    13 iterations: 
 Largest element of residual vector : -0.18343612E-05.
 Largest element of DIIS residual   : -0.16244784E-05.
 Convergence information after    14 iterations: 
 Largest element of residual vector : -0.15327062E-05.
 Largest element of DIIS residual   : -0.95485643E-06.
 Convergence information after    15 iterations: 
 Largest element of residual vector : -0.79295480E-06.
 Largest element of DIIS residual   : -0.42616488E-06.
 Convergence information after    16 iterations: 
 Largest element of residual vector : -0.40645059E-06.
 Largest element of DIIS residual   : -0.14103495E-06.
 Convergence information after    17 iterations: 
 Largest element of residual vector : -0.18932683E-06.
 Largest element of DIIS residual   : -0.91121966E-07.
 Perturbed Lambda equations converged in    17 iterations.
  Dominant contributions to perturbed wavefunction:
    7    7  140   45  -0.1904273572 ABAB
    7    7   45  140  -0.1904273572 ABAB
    7    7  140   22  -0.1768700075 ABAB
    7    7   22  140  -0.1768700075 ABAB
    7    7  140   39  -0.1567896896 ABAB
    7    7   39  140  -0.1567896896 ABAB
    7    7  140   28   0.1495029172 ABAB
    7    7   28  140   0.1495029172 ABAB
    7    7  140   57  -0.1278206668 ABAB
    7    7   57  140  -0.1278206668 ABAB
    7    7  140   32  -0.1272944429 ABAB
    7    7   32  140  -0.1272944429 ABAB
    7    7  140   29  -0.1181646956 ABAB
    7    7   29  140  -0.1181646956 ABAB
    7    6   45   89  -0.1176941372 ABAB
    6    7   89   45  -0.1176941372 ABAB
    7    7  140   54   0.1103255915 ABAB
    7    7   54  140   0.1103255915 ABAB
    7    6   22   89  -0.1085016935 ABAB
    6    7   89   22  -0.1085016935 ABAB
        The DBOC first-order density matrix is being calculated 
             (Symmetry block 3, perturbation   2)
 term   2.82040805388409     
 final tnorm  0.783717396108070     
  norm contr. I: |<0|L dT/dx|0>|^2   0.000000000000000E+000
  norm contr. II: <0|[nabla(1+L)e-T][nabla e^T]|0>   2.82040805388409     
  total norm contribution   2.82040805388409     
 oo  8.643189693105846E-003
 vv  -18.7513929449174     
 vo  5.247453677978991E-002
  Correlated perturbed 1-el contribution to DBOC  -18.6902752184446       cm**-1
  SUM_I |dc_I/dx|^2 contribution to DBOC   9.43538961001494       cm**-1
 
 
  The total diagonal Born-Oppenheimer correction (DBOC) is:      0.0038700598 a.u.
  The total diagonal Born-Oppenheimer correction (DBOC) is:        849.379954 cm-1
 
 Total CC energy including DBOC  -113.071198651353     
 First-order density matrix is being calculated  (Symmetry block 3, perturbation   2)
 Calculation of the contributions of <pq||rs> to dI(i,j)/dx required   4.1 seconds.
 Calculation of the contributions of <pq||rs> to dI(a,b)/dx required  16.0 seconds.
 Calculation of the contributions of <pq||rs> to dI(i,a)/dx required   9.4 seconds.
 First-order Z-vector equations are solved for 1 perturbation.
 Convergence reached after  19 iterations.
        U*G(pq,rs) contribution is being calculated
             (Symmetry block 3, perturbation   2)

 CCSD contribution to force constants 

        0.0000000000        0.0000000000        0.0000000000
        0.0000000000        0.0000000000        0.0000000000
        0.0000000000        0.0000000000        0.0000000000
        0.0000000000        0.0000000000        0.0000000000
        0.0000000000        0.0000000000        0.0000000000
        0.0000000000        0.0000000000        0.0000000000
        0.0000000000        0.0000000000        0.0000000000
        0.0000000000        0.0000000000        0.0000000000
        0.0000000000        0.0000000000        0.0000000000
        0.0000000000        0.0000000000        0.0000000000
        0.0000000000        0.0000000000        0.0000000000
        0.0000000000       -5.1097866483        5.1097866483

 CCSD contribution to dipole derivatives 

        0.0000000000        0.0000000000        0.0000000000
        0.0000000000        0.0000000000        0.0000000000
        0.0000000000        0.0000000000        0.0000000000
        0.0000000000        0.0000000000       -0.0573833019
        0.0000000000        0.0000000000        0.0000000000
        0.0000000000        0.0000000000        0.0000000000
 @CHECKOUT-I, Total execution time (CPU/WALL):     1186.92/     438.28 seconds.
--executable xsdcc finished with status     0 in      438.49 seconds (walltime).
 --invoking executable--
/nfs/workspaces/public/cfour_mpi/bin/xanti
 @GETMEM-I,  Allocated    3814 MB of main memory.
 CCSD MO derivative gammas will be sorted to Mulliken order.
 @CHECKOUT-I, Total execution time (CPU/WALL):       11.67/      20.82 seconds.
--executable xanti finished with status     0 in       20.97 seconds (walltime).
 --invoking executable--
/nfs/workspaces/public/cfour_mpi/bin/xbcktrn
 @GETMEM-I,  Allocated    3814 MB of main memory.
 CCSD MO derivative gammas will be transformed to the AO basis.
 @CHECKOUT-I, Total execution time (CPU/WALL):       21.49/      11.63 seconds.
--executable xbcktrn finished with status     0 in       11.70 seconds (walltime).
 --invoking executable--
/nfs/workspaces/public/cfour_mpi/bin/xvdint
 @GETMEM-I,  Allocated    3814 MB of main memory.
 One- and two-electron integral derivatives are calculated
 for RHF-CC/MBPT hessians and dipole derivatives.
 Spherical gaussians are used.
  magnet F F
                    8722  records have been written to the Sort file.
  Total length of Sort file :             178609116  words.
 Evaluation of 2el integral derivatives

                      Two-electron integral gradient
                      ------------------------------

                         C #1 z     0.0000000000
                         O #2 z     0.0000000000


 C #1       0.0000000000            0.0756882661            0.0000000000
 O #2       0.0000000000           -0.0756882661            0.0000000000


 Evaluation of 2e integral derivatives required  295.61 seconds.
  contribution to Hessian
        0.0000000000        0.0000000000        0.0000000000
        0.0000000000        0.0756882661       -0.0756882661
 @CHECKOUT-I, Total execution time (CPU/WALL):      295.60/      64.86 seconds.
--executable xvdint finished with status     0 in       65.02 seconds (walltime).
 --invoking executable--
/nfs/workspaces/public/cfour_mpi/bin/xanti
 @GETMEM-I,  Allocated    3814 MB of main memory.
 CCSD MO gammas will be sorted to Mulliken order.
 @CHECKOUT-I, Total execution time (CPU/WALL):       16.46/      53.51 seconds.
--executable xanti finished with status     0 in       54.00 seconds (walltime).
 --invoking executable--
/nfs/workspaces/public/cfour_mpi/bin/xbcktrn
 @GETMEM-I,  Allocated    3814 MB of main memory.
 CCSD MO gammas will be transformed to the AO basis.
 @CHECKOUT-I, Total execution time (CPU/WALL):       30.06/      12.33 seconds.
--executable xbcktrn finished with status     0 in       12.40 seconds (walltime).
 --invoking executable--
/nfs/workspaces/public/cfour_mpi/bin/xvdint
 @GETMEM-I,  Allocated    3814 MB of main memory.
 One- and two-electron integral derivatives are calculated
 for RHF-CC/MBPT hessians and dipole derivatives.
 Spherical gaussians are used.
  magnet F F

                     Kinetic energy integral gradient
                     --------------------------------

                         C #1 z    -0.5129246556
                         O #2 z     0.5129246556


 C #1       0.0000000000            0.0000000000           -0.5129246556
 O #2       0.0000000000            0.0000000000            0.5129246556



                   Nuclear attraction integral gradient
                   ------------------------------------

                         C #1 z    13.4559113088
                         O #2 z   -13.4559113088


 C #1       0.0000000000            0.0000000000           13.4559113088
 O #2       0.0000000000            0.0000000000          -13.4559113088



                      Reorthonormalization gradient
                      -----------------------------

                         C #1 z     0.0000000000
                         O #2 z     0.0000000000


 C #1       0.0000000000            0.0000000000            0.0000000000
 O #2       0.0000000000            0.0000000000            0.0000000000



                     Kinetic energy integral Hessian
                     -------------------------------


           Symmetry 1

           C #1 z      O #2 z

 C #1 z    0.540192
 O #2 z   -0.540192    0.540192


           Symmetry 2

           C #1 x      O #2 x

 C #1 x   -0.384527
 O #2 x    0.384527   -0.384527


           Symmetry 3

           C #1 y      O #2 y

 C #1 y   -0.384527
 O #2 y    0.384527   -0.384527




           C #1 x      C #1 y      C #1 z      O #2 x      O #2 y      O #2 z

 C #1 x   -0.384527
 C #1 y    0.000000   -0.384527
 C #1 z    0.000000    0.000000    0.540192

 O #2 x    0.384527    0.000000    0.000000   -0.384527
 O #2 y    0.000000    0.384527    0.000000    0.000000   -0.384527
 O #2 z    0.000000    0.000000   -0.540192    0.000000    0.000000    0.540192




                   Nuclear attraction integral Hessian
                   -----------------------------------


           Symmetry 1

           C #1 z      O #2 z

 C #1 z   -8.150846
 O #2 z    8.150846   -8.150846


           Symmetry 2

           C #1 x      O #2 x

 C #1 x    7.080367
 O #2 x   -7.080367    7.080367


           Symmetry 3

           C #1 y      O #2 y

 C #1 y    7.080367
 O #2 y   -7.080367    7.080367




           C #1 x      C #1 y      C #1 z      O #2 x      O #2 y      O #2 z

 C #1 x    7.080367
 C #1 y    0.000000    7.080367
 C #1 z    0.000000    0.000000   -8.150846

 O #2 x   -7.080367    0.000000    0.000000    7.080367
 O #2 y    0.000000   -7.080367    0.000000    0.000000    7.080367
 O #2 z    0.000000    0.000000    8.150846    0.000000    0.000000   -8.150846




                Highest order reorthonormalization Hessian
                ------------------------------------------


           Symmetry 1

           C #1 z      O #2 z

 C #1 z    0.000000
 O #2 z    0.000000    0.000000


           Symmetry 2

           C #1 x      O #2 x

 C #1 x    0.000000
 O #2 x    0.000000    0.000000


           Symmetry 3

           C #1 y      O #2 y

 C #1 y    0.000000
 O #2 y    0.000000    0.000000




           C #1 x      C #1 y      C #1 z      O #2 x      O #2 y      O #2 z




                Electronic contributions to dipole moment
                -----------------------------------------

                               au             Debye

                    z     -0.73052493     -1.85680949

  Conversion factor used: 1 a.u. =   2.54174691 Debye 



   Electronic contributions to static part of dipole moment derivatives
   --------------------------------------------------------------------


                     Total dipole moment derivatives
                     -------------------------------


           Symmetry 1
                              Ez

               C #1 z    -5.62456632
               O #2 z    -8.37543368

           Symmetry 2
                              Ex

               C #1 x    -5.67647162
               O #2 x    -8.32352838

           Symmetry 3
                              Ey

               C #1 y    -5.67647162
               O #2 y    -8.32352838



                       Ex          Ey          Ez

      C #1    x   -5.676472    0.000000    0.000000
      C #1    y    0.000000   -5.676472    0.000000
      C #1    z    0.000000    0.000000   -5.624566

      O #2    x   -8.323528    0.000000    0.000000
      O #2    y    0.000000   -8.323528    0.000000
      O #2    z    0.000000    0.000000   -8.375434

 Evaluation of 1e integral derivatives required    1.68 seconds.
                    8815  records have been written to the Sort file.
  Total length of Sort file :             180513570  words.
 Evaluation of 2el integral derivatives

                      Two-electron integral gradient
                      ------------------------------

                         C #1 z    -7.2047633699
                         O #2 z     7.2047633699


 C #1       0.0000000000            0.0000000000           -7.2047633699
 O #2       0.0000000000            0.0000000000            7.2047633699


 Evaluation of 2e integral derivatives required  599.86 seconds.

                            Molecular gradient
                            ------------------

                         C #1 z     0.5770598587
                         O #2 z    -0.5770598587


 C #1       0.0000000000            0.0000000000            0.5770598587
 O #2       0.0000000000            0.0000000000           -0.5770598587


  Molecular gradient norm 0.816E+00

                            Molecular hessian
                            -----------------


           Symmetry 1

           C #1 z      O #2 z

 C #1 z   14.694858
 O #2 z  -14.694858   14.694858


           Symmetry 2

           C #1 x      O #2 x

 C #1 x    5.282679
 O #2 x   -5.282679    5.282679


           Symmetry 3

           C #1 y      O #2 y

 C #1 y    5.282679
 O #2 y   -5.282679    5.282679




           C #1 x      C #1 y      C #1 z      O #2 x      O #2 y      O #2 z

 C #1 x    5.282679
 C #1 y    0.000000    5.282679
 C #1 z    0.000000    0.000000   14.694858

 O #2 x   -5.282679    0.000000    0.000000    5.282679
 O #2 y    0.000000   -5.282679    0.000000    0.000000    5.282679
 O #2 z    0.000000    0.000000  -14.694858    0.000000    0.000000   14.694858




                           Total dipole moment
                           -------------------

                               au             Debye

                    z      0.48884809      1.24252813

  Conversion factor used: 1 a.u. =   2.54174691 Debye 



                     Total dipole moment derivatives
                     -------------------------------


           Symmetry 1
                              Ez

               C #1 z     0.57000709
               O #2 z    -0.57000709

           Symmetry 2
                              Ex

               C #1 x     0.16979219
               O #2 x    -0.16979219

           Symmetry 3
                              Ey

               C #1 y     0.16979219
               O #2 y    -0.16979219



                       Ex          Ey          Ez

      C #1    x    0.169792    0.000000    0.000000
      C #1    y    0.000000    0.169792    0.000000
      C #1    z    0.000000    0.000000    0.570007

      O #2    x   -0.169792    0.000000    0.000000
      O #2    y    0.000000   -0.169792    0.000000
      O #2    z    0.000000    0.000000   -0.570007

 @CHECKOUT-I, Total execution time (CPU/WALL):      601.52/     102.91 seconds.
--executable xvdint finished with status     0 in      103.10 seconds (walltime).
 --invoking executable--
/nfs/workspaces/public/cfour_mpi/bin/xjoda
  @GTFLGS-I, Hessian will be transformed to curvilinear coordinates.
  @GTFLGS-I, Hessian will be transformed to curvilinear coordinates.
  igrd and ihes are                      0                     1
  gradient from JOBARC 
   0.000000000000000   0.000000000000000   0.577059858713161
   0.000000000000000   0.000000000000000  -0.577059858713161
 
  @PROJFCM-I, Projecting force constant matrix onto totally symmetric subspace.
  Largest difference between matrix elements of symmetrized
  and unsymmetrized FCM :    -0.8810729923E-12.
  read isotopes from ZMAT file 
 
  Summary of diagonal Born-Oppenheimer correction at the correlated level
  The total diagonal Born-Oppenheimer correction (DBOC) is:      0.0038700598 a.u.
  The total diagonal Born-Oppenheimer correction (DBOC) is:        849.379954 cm-1
  The total diagonal Born-Oppenheimer correction (DBOC) is:            10.161 kJ/mole
  hellooooooo 
  readis is  F
 
 @CHECKOUT-I, Total execution time (CPU/WALL):        0.02/       0.08 seconds.
--executable xjoda finished with status     0 in        0.13 seconds (walltime).
  The final electronic energy is      -113.071198651353399 a.u. 
  This computation required                         3875.32 seconds (walltime).
