 --invoking executable--
/nfs/workspaces/public/cfour_mpi/bin/xjoda


   *************************************************************************
         <<<     CCCCCC     CCCCCC   |||     CCCCCC     CCCCCC   >>>
       <<<      CCC        CCC       |||    CCC        CCC         >>>
      <<<      CCC        CCC        |||   CCC        CCC            >>>
    <<<        CCC        CCC        |||   CCC        CCC              >>>
      <<<      CCC        CCC        |||   CCC        CCC            >>>
       <<<      CCC        CCC       |||    CCC        CCC         >>>
         <<<     CCCCCC     CCCCCC   |||     CCCCCC     CCCCCC   >>>
   *************************************************************************

     ****************************************************************
     * CFOUR Coupled-Cluster techniques for Computational Chemistry *
     ****************************************************************
 

   Department of Chemistry                Institut fuer Physikalische Chemie
   University of Florida                  Universitaet Mainz
   Gainesville, FL 32611, USA             D-55099 Mainz, Germany

   Department of Chemistry                Fakultaet fuer Chemie und Biowiss.
   Johns Hopkins University               Karlsruher Institut fuer Technologie
   Baltimore, MD 21218, USA               D-76131 Karlsruhe, Germany

   Department of Chemistry                Department of Physical Chemistry
   Southern Methodist University          Eotvos Lorand University
   Dallas, TX 75275, USA                  H-1053 Budapest, Hungary

 
                       Version 2.1
 
                     vincent.theory.phys.ucl.ac.uk                     
                     Sat  1 Mar 11:03:38 GMT 2025                      
                     integer*8 version is running
 
********************************************************************************
*                          Input from ZMAT file                                *
********************************************************************************
Carbon Monoxide DBOC calculation                                                
C                                                                               
O 1 r                                                                           
                                                                                
r=1.0241379310344827                                                            
                                                                                
                                                                                
*CFOUR(CALC=CCSD,BASIS=AUG-PCVQZ,SCF_CONV=10                                    
CC_CONV=14,DBOC=ON,MEMORY=500000000                                             
ZFIELD=200)                                                                     
                                                                                
%isotopes                                                                       
12                                                                              
18                                                                              
********************************************************************************
  @GTFLGS-I, Hessian will be transformed to curvilinear coordinates.
    -------------------------------------------------------------------
                    CFOUR Control Parameters 
    -------------------------------------------------------------------
        External           Internal           Value            Units
          Name               Name
    -------------------------------------------------------------------
       ABCDTYPE             IABCDT         STANDARD    [  0]    ***   
       ANHARMONIC           IANHAR         OFF         [  0]    ***   
       ANH_ALGORIT          IANALG         STANDARD    [  0]    ***   
       ANH_DERIVAT          IANDER         SECOND      [  1]    ***   
       ANH_MODE             ANHMOD         VIBRATION   [  0]    ***   
       ANH_STEPSIZ          ICUBST             50000          x 10-6  
       ANH_SYMMETR          IANHSM         ABELIAN     [  0]    ***   
       AO_LADDERS           IAOLAD         SINGLEPASS  [  1]    ***   
       AV_SCF               IAVSCF         OFF         [  0]    ***   
       BASIS                IBASIS         AUG-PCVQZ   [ 52]    ***   
       BOTHVECTORS          BOTHVC         OFF         [  0]    ***   
       BOX_POTENT           IPIAB          OFF         [  0]    ***   
       BREIT                IBREIT         OFF         [  0]    ***   
       BRUCK_CONV           IBRTOL          10D-  4             ***   
       BRUECKNER            IBRKNR         OFF         [  0]    ***   
       BUFFERSIZE           IBUFFS              4096            ***   
       CACHE_RECS           ICHREC             10               ***   
       CALCLEVEL            ICLLVL         CCSD        [ 10]    ***   
       CCORBOPT             ICCORB         OFF         [  0]  x 0.01  
       CC_CONV              ICCCNV          10D- 14             ***   
       CC_EXPORDER          ICCEOR              5               ***   
       CC_EXTRAPOL          ICCEXT         DIIS        [  1]    ***   
       CC_GUESS             ICCGES         MP2         [  0]    ***   
       CC_MAXCYC            ICCCYC            100              cycles 
       CC_PROGRAM           ICCPRO         VCC         [  0]    ***   
       CHARGE               ICHRGE              0               ***   
       CHOLESKY             ICHOLE         OFF         [  0]    ***   
       CIS_CONV             ICISTL              5               ***   
       COMM_SIZE            IPSIZE            ***               ***   
       CONSTANT             ICONST         OLD         [  1]    ***   
       CONTINUUM            ICONTU         NONE        [  0]    ***   
       CONTRACTION          ICNTYP         GENERAL     [  1]    ***   
       COORDINATES          ICOORD         INTERNAL    [  0]    ***   
       CPHF_CONVER          ICPHFT          10D- 16             ***   
       CPHF_MAXCYC          ICPHFC             64              cycles 
       CUBIC                ICUBIC         OFF         [  0]    ***   
       CURVILINEAR          ICURVY         ON          [  1]    ***   
       DBOC                 IDBOC          ON          [  1]    ***   
       DCT                  IDCT           OFF         [  0]    ***   
       DERIV_LEV            IDRLVL         SECOND      [  2]    ***   
       DEVMEM_SIZE          IDVMEM          50000000           MByte  
       DIAG_MRCC            IEOMST          10D-  0             ***   
       DIFF_TYPE            IDIFTY         RELAXED     [  0]    ***   
       DIRECT               IDIRCT         OFF         [  0]    ***   
       DROPMO               IDRPMO      NONE         
       ECP                  IECP           OFF         [  0]    ***   
       EIGENVECTOR          IVEC                1               ***   
       EL_ANHARM            IELANH         OFF         [  0]    ***   
       EOMFOLLOW            IEOMSR         ENERGY      [  0]    ***   
       EOMIP                IEOMIP         OFF         [  0]    ***   
       EOMLEVEL             HBARFM         SAME        [  0]    ***   
       EOM_MRCC             IMRCCE         NEW         [  1]    ***   
       EOM_NONIT            EOMNON         OFF         [  0]    ***   
       EOM_NSING            IEOMSI          10D-  0             ***   
       EOM_NSTATES          IMRCCD         DAVIDSON    [  0]    ***   
       EOM_NTRIP            IEOMTR          10D-  0             ***   
       EOM_ORDER            IEXORD         ENERGY      [  0]    ***   
       EOM_PROPSTA          IEOMST              0               ***   
       ESTATE_CONV          IEXTOL          10D-  5             ***   
       ESTATE_DIAG          IEXDIG         ITERATIVE   [  0]    ***   
       ESTATE_LOCK          IESLOC         ON          [  1]    ***   
       ESTATE_MAXC          IEXMXC             40               ***   
       ESTATE_PROP          IEXPRP         OFF         [  0]    ***   
       EVAL_HESS            IRECAL              0            # of cyc.
       EXCITATION           IEXCIT              0               ***   
       EXCITE               IEXCIT         NONE        [  0]    ***   
       EXTERN_POT           IEXPOT         OFF         [  0]    ***   
       FCGRADNEW            IFCGNW         OFF         [  0]    ***   
       FC_FIELD             IFINFC              0             x 10-6  
       FD_CALTYPE           IFDCAL         GRADONLY    [  0]    ***   
       FD_PROJECT           IFDPRJ         OFF         [  1]    ***   
       FD_STEPSIZE          IDISFD              0            10-4 bohr
       FD_USEGROUP          IFDGRP         FULL        [  0]    ***   
       FILE_RECSIZ          IFLREC              4096           words  
       FINITE_PERT          IFIPER              0             x 10-6  
       FIXGEOM              IFIXGM         OFF         [  0]    ***   
       FOCK                 IFOCK          AO          [  1]    ***   
       FREQ_ALGORI          IVIALG         STANDARD    [  0]    ***   
       FROZEN_CORE          IFROCO         OFF         [  0]    ***   
       GAMMA_ABCD           IGABCD         STORE       [  0]    ***   
       GAMMA_ABCI           IGABCI         STORE       [  0]    ***   
       GENBAS_1             IGNBS1              0               ***   
       GENBAS_2             IGNBS2              0               ***   
       GENBAS_3             IGNBS3              0               ***   
       GENBAS_4             IGNBS4              0               ***   
       GEO_CONV             ICONTL              5              H/bohr 
       GEO_MAXCYC           IOPTCY             50               ***   
       GEO_MAXSTEP          IMXSTP            300            millibohr
       GEO_METHOD           INR            SINGLE_POINT[  5]    ***   
       GIAO                 IGIAO          OFF         [  1]    ***   
       GIMIC                IGIMIC         OFF         [  0]    ***   
       GRID                 IGRID          OFF         [  0]    ***   
       GRID_ALGO            IGALGO         SERIAL      [  0]    ***   
       GUESS                IGUESS         MOREAD      [  0]    ***   
       HBAR                 IHBAR          OFF         [  0]    ***   
       HESS_TYPE            IHESTP         SCF         [  0]    ***   
       HF2_FILE             IHF2Fl         USE         [  1]    ***   
       HFSTABILITY          ISTABL         OFF         [  0]    ***   
       INCORE               INCORE         OFF         [  0]    ***   
       INPUT_MRCC           IMRCC          ON          [  1]    ***   
       INTEGRALS            INTTYP         VMOL        [  1]    ***   
       JODA_PRINT           IJPRNT              0               ***   
       KEYWORD_OUT          IDMPKW         NO          [  0]    ***   
       LINDEP_TOL           ILINDP              8               ***   
       LINEQ_CONV           IZTACN          10D-  7           cycles  
       LINEQ_EXPOR          ILMAXD              5               ***   
       LINEQ_MAXCY          ILMAXC            100               ***   
       LINEQ_TYPE           ILTYPE         DIIS        [  1]    ***   
       LOCK_ORBOCC          ILOCOC         OFF         [  0]    ***   
       MEMORY_SIZE          IMEMSZ         500000000           words  
       MEM_UNIT             IMEMU          INTEGERWORDS[  0]    ***   
       MRCC                 IMRCCC         OFF         [  0]    ***   
       MULTIPLICTY          IMULTP              1               ***   
       NACOUPLING           IVCOUP         OFF         [  0]    ***   
       NEGEVAL              IDIE           ABORT       [  0]    ***   
       NEWNORM              INEWNO         OFF         [  0]    ***   
       NON-HF               INONHF         OFF         [  0]    ***   
       NTOP_TAMP            ITOPT2             15               ***   
       NUC_MODEL            INUCMO         POINT       [  0]    ***   
       OCCUPATION           IOCCU   ESTIMATED BY SCF 
       OPEN-SHELL           IOPEN          SPIN-ORBITAL[  0]    ***   
       OPTVIB               IOPTVB         OFF         [  0]    ***   
       ORBITALS             IORBTP         STANDARD    [  0]    ***   
       PARALLEL             IPARAL         ON          [  1]    ***   
       PARA_INT             IPINTS         ON          [  1]    ***   
       PARA_PRINT           IPPRIN              0               ***   
       PERT_ORB             IPTORB         STANDARD    [  0]    ***   
       POINTS               IGRDFD              0               ***   
       PRINT                IPRNT               0               ***   
       PROPS                IPROPS         OFF         [  0]    ***   
       PROP_INTEGR          IINTYP         INTERNAL    [  0]    ***   
       PSI                  IPSI           OFF         [  0]    ***   
       QC_ALG               IQCALG         FLM         [  0]    ***   
       QC_LINALG            IQCLIN         TRIDIAG     [  2]    ***   
       QC_MAXCYC            IQCMAX          10D-100           cycles  
       QC_MAXSCFCY          IQCMSC          10D- 15           cycles  
       QC_RTRUST            IQCRTR          10D-  0           x 10-3  
       QC_SKIPSCF           IQCSKI         OFF         [  0]    ***   
       QC_START             IQCSTA          10D-  1             ***   
       QRHFGUESS            IQGUES         OFF         [  0]    ***   
       QUARTIC              IQUART         OFF         [  0]    ***   
       RAMAN_INT            IRAMIN         OFF         [  0]    ***   
       RAMAN_ORB            IRAMRE         UNRELAXED   [  0]    ***   
       RDO                  IRDOFM         ON          [  1]    ***   
       REDUCE_REPR          REDREP         Ir          [  0]    ***   
       REFERENCE            IREFNC         RHF         [  0]    ***   
       RELATIVIST           IRELAT         OFF         [  0]    ***   
       RELAX_DENS           IRDENS         ON          [  1]    ***   
       RESET_FLAGS          IRESET         OFF         [  0]    ***   
       RESTART_CC           ICCRES         OFF         [  0]    ***   
       ROT_EVEC             ROTVEC              0               ***   
       SAVE_INTS            ISVINT         OFF         [  0]    ***   
       SCALE_ON             ISTCRT              0               ***   
       SCF_CONV             ISCFCV          10D- 10             ***   
       SCF_DAMPING          IDAMP               0             x 10-3  
       SCF_EXPORDE          IRPPOR              6               ***   
       SCF_EXPSTAR          IRPPLS              8               ***   
       SCF_EXTRAPO          IRPP           ON          [  1]    ***   
       SCF_MAXCYC           ISCFCY            150              cycles 
       SCF_NOSTOP           ISCFST         OFF         [  0]    ***   
       SCF_PRINT            ISCFPR              0               ***   
       SCF_PROG             ISCFPR         SCF         [  0]    ***   
       SD_FIELD             IFINSD              0             x 10-6  
       SOPERT               IPERSO         OFF         [  0]    ***   
       SPHERICAL            IDFGHI         ON          [  1]    ***   
       SPINORBIT            ISOCAL         OFF         [  0]    ***   
       SPINROTATIO          ISRCON         OFF         [  0]    ***   
       SPIN_FLIP            ISPFLP         OFF         [  0]    ***   
       SPIN_ORBIT           ISPORB         OFF         [  0]    ***   
       SPIN_SCAL            ISCSMP         OFF         [  0]    ***   
       STEEPSCALE           ISTPSC              1000          x 10-3  
       SUBGROUP             ISUBGP         DEFAULT     [  0]    ***   
       SUBGRPAXIS           ISBXYZ         X           [  0]    ***   
       SYMMETRY             ISYM           ON          [  0]    ***   
       SYM_CHECK            ISYMCK         OVERRIDE    [  1]    ***   
       T3_EXTRAPOL          IT3EXT         OFF         [  0]    ***   
       T4_EXTRAPOL          IT4EXP         OFF         [  0]    ***   
       TAMP_SUM             IEVERY              5               ***   
       TESTSUITE            ITESTS         OFF         [  0]    ***   
       THERMOCH             ITHERM         OFF         [  0]    ***   
       TOL_CHOLESK          ITOLCH          10D-  4             ***   
       TRANGRAD             IRESRM         OFF         [  0]    ***   
       TRANS_INV            ITRAIN         IGNORE      [  1]    ***   
       TREAT_PERT           ITREAT         SIMULTANEOUS[  0]    ***   
       TRIP_ALGORI          ITRALG         NORMAL      [  0]    ***   
       UIJ_THRESHO          IUIJTH              1               ***   
       UNITS                IUNITS         ANGSTROM    [  0]    ***   
       UNOS                 IUNOS          OFF         [  0]    ***   
       UPDATE_HESS          IHUPDT         ON          [  1]    ***   
       VIBPHASE             ISETPH         STANDARD    [  0]    ***   
       VIBRATION            IVIB           ANALYTIC    [  1]    ***   
       VIB_ALGORIT          IGEALG         STANDARD    [  0]    ***   
       VNATORB              IVNORB         OFF         [  0]    ***   
       VTRAN                IVTRAN         FULL/PARTIAL[  0]    ***   
       XFIELD               IXEFLD              0             x 10-6  
       XFORM_TOL            IXFTOL          10D- 11             ***   
       YFIELD               IYEFLD              0             x 10-6  
       ZFIELD               IZEFLD            200             x 10-6  
       ZSCALE_EXP           IZEXPS         OFF         [  0]    ***   
    -------------------------------------------------------------------
   2 entries found in Z-matrix 
   Job Title : Carbon Monoxide DBOC calculation                                                
   There are  1 unique internal coordinates.
   Of these,  0 will be optimized.
   User supplied Z-matrix: 
--------------------------------------------------------------------------------
       SYMBOL    BOND      LENGTH    ANGLE     ANGLE     DIHED     ANGLE
                  TO      (ANGST)    WRT      (DEG)      WRT      (DEG)
--------------------------------------------------------------------------------
        C    
        O          1         r    
                  *Initial values for internal coordinates* 
                      Name             Value
                        r               1.0241379310
--------------------------------------------------------------------------------
  read isotopes from ZMAT file 
   Rotational constants (in cm-1): 
          2.2323138827             2.2323138827
   Rotational constants (in MHz): 
      66923.0959682628         66923.0959682628
********************************************************************************
   The full molecular point group is CXv .
   The largest Abelian subgroup of the full molecular point group is C2v .
   The computational point group is C2v .
********************************************************************************
--------------------------------------------------------------------------------
   Analysis of internal coordinates specified by Z-matrix 
--------------------------------------------------------------------------------
   *The nuclear repulsion energy is   24.801835797979798 a.u.
   *There is   1 degree of freedom within the tot. symm. molecular subspace.
   *Z-matrix requests optimization of   0 coordinates.
   *The optimization is constrained.
   *The following   1 parameters can have non-zero 
    derivatives within the totally symmetric subspace:
             r    [ 1]
   *The following   0 parameters are to be optimized:

   *The following coordinates must be varied in an  unconstrained optimization.
             r    [ 1]
--------------------------------------------------------------------------------


 ----------------------------------------------------------------
         Coordinates used in calculation (QCOMP) 
 ----------------------------------------------------------------
 Z-matrix   Atomic            Coordinates (in bohr)
  Symbol    Number           X              Y              Z
 ----------------------------------------------------------------
     C         6        -0.00000000     0.00000000     1.16118270
     O         8         0.00000000     0.00000000    -0.77415791
 ----------------------------------------------------------------
 
   Interatomic distance matrix (Angstroms) 
 
                 C             O    
                [ 1]        [ 2]
  C    [ 1]     0.00000
  O    [ 2]     1.02414     0.00000
 rotcon2
   Rotational constants (in cm-1): 
          2.2323138827             0.0000000000
   Rotational constants (in MHz): 
      66923.0959682628             0.0000000000
  ECPDATA file not present.   Using default ECPDATA. 
  @GTFLGS-I, Hessian will be transformed to curvilinear coordinates.
  There are  218 basis functions.
 @CHECKOUT-I, Total execution time (CPU/WALL):        0.15/       0.21 seconds.
--executable xjoda finished with status     0 in        0.24 seconds (walltime).
 --invoking executable--
/nfs/workspaces/public/cfour_mpi/bin/xvmol
 SERIAL VERSION OF MOLECULE STARTED
********************************************************************************
                    INPUT FROM MOL FILE
********************************************************************************
INTGRL        1    0    1    0    0    0    0    0    0                         
         *** CFOUR Program System (Release V0.1) ***                            
Carbon Monoxide DBOC calculation                                                
    2    2 X  Y       0.10E-08              0    0                              
   9999.00      3.00                                                            
          6.00000000    1    5    1    1    1    1    1                         
C #1  -0.000000000000000   0.000000000000000   1.161182696778573                
   16    9                                                                      
   33980.0000000000       9.100000000000000E-005 -1.900000000000000E-005        
  0.000000000000000E+000  0.000000000000000E+000  0.000000000000000E+000        
  0.000000000000000E+000  0.000000000000000E+000  0.000000000000000E+000        
  0.000000000000000E+000                                                        
   5089.00000000000       7.040000000000000E-004 -1.510000000000000E-004        
  0.000000000000000E+000  0.000000000000000E+000  0.000000000000000E+000        
  0.000000000000000E+000  0.000000000000000E+000  0.000000000000000E+000        
  0.000000000000000E+000                                                        
   1157.00000000000       3.693000000000000E-003 -7.850000000000000E-004        
  0.000000000000000E+000  0.000000000000000E+000  0.000000000000000E+000        
  0.000000000000000E+000  0.000000000000000E+000  0.000000000000000E+000        
  0.000000000000000E+000                                                        
   326.600000000000       1.536000000000000E-002 -3.324000000000000E-003        
  0.000000000000000E+000  0.000000000000000E+000  0.000000000000000E+000        
  0.000000000000000E+000  0.000000000000000E+000  0.000000000000000E+000        
  0.000000000000000E+000                                                        
   106.100000000000       5.292900000000000E-002 -1.151200000000000E-002        
  0.000000000000000E+000  0.000000000000000E+000  0.000000000000000E+000        
  0.000000000000000E+000  0.000000000000000E+000  0.000000000000000E+000        
  0.000000000000000E+000                                                        
   38.1100000000000       0.147043000000000      -3.416000000000000E-002        
  0.000000000000000E+000  0.000000000000000E+000  0.000000000000000E+000        
  0.000000000000000E+000  0.000000000000000E+000  0.000000000000000E+000        
  0.000000000000000E+000                                                        
   14.7500000000000       0.305631000000000      -7.717300000000001E-002        
  0.000000000000000E+000  0.000000000000000E+000  0.000000000000000E+000        
  0.000000000000000E+000  0.000000000000000E+000  0.000000000000000E+000        
  0.000000000000000E+000                                                        
   6.03500000000000       0.399345000000000      -0.141493000000000             
  0.000000000000000E+000  0.000000000000000E+000  0.000000000000000E+000        
  0.000000000000000E+000  0.000000000000000E+000  0.000000000000000E+000        
  0.000000000000000E+000                                                        
   2.53000000000000       0.217051000000000      -0.118019000000000             
  0.000000000000000E+000  0.000000000000000E+000  0.000000000000000E+000        
  0.000000000000000E+000  0.000000000000000E+000  0.000000000000000E+000        
  0.000000000000000E+000                                                        
  0.735500000000000       1.589400000000000E-002  0.273806000000000             
   1.00000000000000       0.000000000000000E+000  0.000000000000000E+000        
  0.000000000000000E+000  0.000000000000000E+000  0.000000000000000E+000        
  0.000000000000000E+000                                                        
  0.290500000000000      -3.084000000000000E-003  0.586510000000000             
  0.000000000000000E+000   1.00000000000000       0.000000000000000E+000        
  0.000000000000000E+000  0.000000000000000E+000  0.000000000000000E+000        
  0.000000000000000E+000                                                        
  0.111100000000000       9.779999999999999E-004  0.285430000000000             
  0.000000000000000E+000  0.000000000000000E+000   1.00000000000000             
  0.000000000000000E+000  0.000000000000000E+000  0.000000000000000E+000        
  0.000000000000000E+000                                                        
   7.21600000000000       0.000000000000000E+000  0.000000000000000E+000        
  0.000000000000000E+000  0.000000000000000E+000  0.000000000000000E+000        
   1.00000000000000       0.000000000000000E+000  0.000000000000000E+000        
  0.000000000000000E+000                                                        
   19.5700000000000       0.000000000000000E+000  0.000000000000000E+000        
  0.000000000000000E+000  0.000000000000000E+000  0.000000000000000E+000        
  0.000000000000000E+000   1.00000000000000       0.000000000000000E+000        
  0.000000000000000E+000                                                        
   53.0730000000000       0.000000000000000E+000  0.000000000000000E+000        
  0.000000000000000E+000  0.000000000000000E+000  0.000000000000000E+000        
  0.000000000000000E+000  0.000000000000000E+000   1.00000000000000             
  0.000000000000000E+000                                                        
  4.145000000000000E-002  0.000000000000000E+000  0.000000000000000E+000        
  0.000000000000000E+000  0.000000000000000E+000  0.000000000000000E+000        
  0.000000000000000E+000  0.000000000000000E+000  0.000000000000000E+000        
   1.00000000000000                                                             
   10    8                                                                      
   34.5100000000000       5.378000000000000E-003  0.000000000000000E+000        
  0.000000000000000E+000  0.000000000000000E+000  0.000000000000000E+000        
  0.000000000000000E+000  0.000000000000000E+000  0.000000000000000E+000        
   7.91500000000000       3.613200000000000E-002  0.000000000000000E+000        
  0.000000000000000E+000  0.000000000000000E+000  0.000000000000000E+000        
  0.000000000000000E+000  0.000000000000000E+000  0.000000000000000E+000        
   2.36800000000000       0.142493000000000       0.000000000000000E+000        
  0.000000000000000E+000  0.000000000000000E+000  0.000000000000000E+000        
  0.000000000000000E+000  0.000000000000000E+000  0.000000000000000E+000        
  0.813200000000000       0.342150000000000        1.00000000000000             
  0.000000000000000E+000  0.000000000000000E+000  0.000000000000000E+000        
  0.000000000000000E+000  0.000000000000000E+000  0.000000000000000E+000        
  0.289000000000000       0.463864000000000       0.000000000000000E+000        
   1.00000000000000       0.000000000000000E+000  0.000000000000000E+000        
  0.000000000000000E+000  0.000000000000000E+000  0.000000000000000E+000        
  0.100700000000000       0.250028000000000       0.000000000000000E+000        
  0.000000000000000E+000   1.00000000000000       0.000000000000000E+000        
  0.000000000000000E+000  0.000000000000000E+000  0.000000000000000E+000        
   8.18200000000000       0.000000000000000E+000  0.000000000000000E+000        
  0.000000000000000E+000  0.000000000000000E+000   1.00000000000000             
  0.000000000000000E+000  0.000000000000000E+000  0.000000000000000E+000        
   24.1860000000000       0.000000000000000E+000  0.000000000000000E+000        
  0.000000000000000E+000  0.000000000000000E+000  0.000000000000000E+000        
   1.00000000000000       0.000000000000000E+000  0.000000000000000E+000        
   71.4940000000000       0.000000000000000E+000  0.000000000000000E+000        
  0.000000000000000E+000  0.000000000000000E+000  0.000000000000000E+000        
  0.000000000000000E+000   1.00000000000000       0.000000000000000E+000        
  3.218000000000000E-002  0.000000000000000E+000  0.000000000000000E+000        
  0.000000000000000E+000  0.000000000000000E+000  0.000000000000000E+000        
  0.000000000000000E+000  0.000000000000000E+000   1.00000000000000             
    6    6                                                                      
   1.84800000000000        1.00000000000000       0.000000000000000E+000        
  0.000000000000000E+000  0.000000000000000E+000  0.000000000000000E+000        
  0.000000000000000E+000                                                        
  0.649000000000000       0.000000000000000E+000   1.00000000000000             
  0.000000000000000E+000  0.000000000000000E+000  0.000000000000000E+000        
  0.000000000000000E+000                                                        
  0.228000000000000       0.000000000000000E+000  0.000000000000000E+000        
   1.00000000000000       0.000000000000000E+000  0.000000000000000E+000        
  0.000000000000000E+000                                                        
   8.65600000000000       0.000000000000000E+000  0.000000000000000E+000        
  0.000000000000000E+000   1.00000000000000       0.000000000000000E+000        
  0.000000000000000E+000                                                        
   33.2130000000000       0.000000000000000E+000  0.000000000000000E+000        
  0.000000000000000E+000  0.000000000000000E+000   1.00000000000000             
  0.000000000000000E+000                                                        
  7.660000000000000E-002  0.000000000000000E+000  0.000000000000000E+000        
  0.000000000000000E+000  0.000000000000000E+000  0.000000000000000E+000        
   1.00000000000000                                                             
    4    4                                                                      
   1.41900000000000        1.00000000000000       0.000000000000000E+000        
  0.000000000000000E+000  0.000000000000000E+000                                
  0.485000000000000       0.000000000000000E+000   1.00000000000000             
  0.000000000000000E+000  0.000000000000000E+000                                
   24.6940000000000       0.000000000000000E+000  0.000000000000000E+000        
   1.00000000000000       0.000000000000000E+000                                
  0.187000000000000       0.000000000000000E+000  0.000000000000000E+000        
  0.000000000000000E+000   1.00000000000000                                     
    2    2                                                                      
   1.01100000000000        1.00000000000000       0.000000000000000E+000        
  0.424000000000000       0.000000000000000E+000   1.00000000000000             
          8.00000000    1    5    1    1    1    1    1                         
O #2   0.000000000000000   0.000000000000000  -0.774157912318992                
   16    9                                                                      
   61420.0000000000       9.000000000000001E-005 -2.000000000000000E-005        
  0.000000000000000E+000  0.000000000000000E+000  0.000000000000000E+000        
  0.000000000000000E+000  0.000000000000000E+000  0.000000000000000E+000        
  0.000000000000000E+000                                                        
   9199.00000000000       6.980000000000001E-004 -1.590000000000000E-004        
  0.000000000000000E+000  0.000000000000000E+000  0.000000000000000E+000        
  0.000000000000000E+000  0.000000000000000E+000  0.000000000000000E+000        
  0.000000000000000E+000                                                        
   2091.00000000000       3.664000000000000E-003 -8.290000000000000E-004        
  0.000000000000000E+000  0.000000000000000E+000  0.000000000000000E+000        
  0.000000000000000E+000  0.000000000000000E+000  0.000000000000000E+000        
  0.000000000000000E+000                                                        
   590.900000000000       1.521800000000000E-002 -3.508000000000000E-003        
  0.000000000000000E+000  0.000000000000000E+000  0.000000000000000E+000        
  0.000000000000000E+000  0.000000000000000E+000  0.000000000000000E+000        
  0.000000000000000E+000                                                        
   192.300000000000       5.242300000000000E-002 -1.215600000000000E-002        
  0.000000000000000E+000  0.000000000000000E+000  0.000000000000000E+000        
  0.000000000000000E+000  0.000000000000000E+000  0.000000000000000E+000        
  0.000000000000000E+000                                                        
   69.3200000000000       0.145921000000000      -3.626100000000000E-002        
  0.000000000000000E+000  0.000000000000000E+000  0.000000000000000E+000        
  0.000000000000000E+000  0.000000000000000E+000  0.000000000000000E+000        
  0.000000000000000E+000                                                        
   26.9700000000000       0.305258000000000      -8.299200000000000E-002        
  0.000000000000000E+000  0.000000000000000E+000  0.000000000000000E+000        
  0.000000000000000E+000  0.000000000000000E+000  0.000000000000000E+000        
  0.000000000000000E+000                                                        
   11.1000000000000       0.398508000000000      -0.152090000000000             
  0.000000000000000E+000  0.000000000000000E+000  0.000000000000000E+000        
  0.000000000000000E+000  0.000000000000000E+000  0.000000000000000E+000        
  0.000000000000000E+000                                                        
   4.68200000000000       0.216980000000000      -0.115331000000000             
  0.000000000000000E+000  0.000000000000000E+000  0.000000000000000E+000        
  0.000000000000000E+000  0.000000000000000E+000  0.000000000000000E+000        
  0.000000000000000E+000                                                        
   1.42800000000000       1.759400000000000E-002  0.288979000000000             
   1.00000000000000       0.000000000000000E+000  0.000000000000000E+000        
  0.000000000000000E+000  0.000000000000000E+000  0.000000000000000E+000        
  0.000000000000000E+000                                                        
  0.554700000000000      -2.502000000000000E-003  0.586128000000000             
  0.000000000000000E+000   1.00000000000000       0.000000000000000E+000        
  0.000000000000000E+000  0.000000000000000E+000  0.000000000000000E+000        
  0.000000000000000E+000                                                        
  0.206700000000000       9.540000000000000E-004  0.277624000000000             
  0.000000000000000E+000  0.000000000000000E+000   1.00000000000000             
  0.000000000000000E+000  0.000000000000000E+000  0.000000000000000E+000        
  0.000000000000000E+000                                                        
   12.9740000000000       0.000000000000000E+000  0.000000000000000E+000        
  0.000000000000000E+000  0.000000000000000E+000  0.000000000000000E+000        
   1.00000000000000       0.000000000000000E+000  0.000000000000000E+000        
  0.000000000000000E+000                                                        
   34.9000000000000       0.000000000000000E+000  0.000000000000000E+000        
  0.000000000000000E+000  0.000000000000000E+000  0.000000000000000E+000        
  0.000000000000000E+000   1.00000000000000       0.000000000000000E+000        
  0.000000000000000E+000                                                        
   93.8810000000000       0.000000000000000E+000  0.000000000000000E+000        
  0.000000000000000E+000  0.000000000000000E+000  0.000000000000000E+000        
  0.000000000000000E+000  0.000000000000000E+000   1.00000000000000             
  0.000000000000000E+000                                                        
  6.959000000000000E-002  0.000000000000000E+000  0.000000000000000E+000        
  0.000000000000000E+000  0.000000000000000E+000  0.000000000000000E+000        
  0.000000000000000E+000  0.000000000000000E+000  0.000000000000000E+000        
   1.00000000000000                                                             
   10    8                                                                      
   63.4200000000000       6.044000000000000E-003  0.000000000000000E+000        
  0.000000000000000E+000  0.000000000000000E+000  0.000000000000000E+000        
  0.000000000000000E+000  0.000000000000000E+000  0.000000000000000E+000        
   14.6600000000000       4.179900000000000E-002  0.000000000000000E+000        
  0.000000000000000E+000  0.000000000000000E+000  0.000000000000000E+000        
  0.000000000000000E+000  0.000000000000000E+000  0.000000000000000E+000        
   4.45900000000000       0.161143000000000       0.000000000000000E+000        
  0.000000000000000E+000  0.000000000000000E+000  0.000000000000000E+000        
  0.000000000000000E+000  0.000000000000000E+000  0.000000000000000E+000        
   1.53100000000000       0.356731000000000        1.00000000000000             
  0.000000000000000E+000  0.000000000000000E+000  0.000000000000000E+000        
  0.000000000000000E+000  0.000000000000000E+000  0.000000000000000E+000        
  0.530200000000000       0.448309000000000       0.000000000000000E+000        
   1.00000000000000       0.000000000000000E+000  0.000000000000000E+000        
  0.000000000000000E+000  0.000000000000000E+000  0.000000000000000E+000        
  0.175000000000000       0.244940000000000       0.000000000000000E+000        
  0.000000000000000E+000   1.00000000000000       0.000000000000000E+000        
  0.000000000000000E+000  0.000000000000000E+000  0.000000000000000E+000        
   14.4750000000000       0.000000000000000E+000  0.000000000000000E+000        
  0.000000000000000E+000  0.000000000000000E+000   1.00000000000000             
  0.000000000000000E+000  0.000000000000000E+000  0.000000000000000E+000        
   42.7300000000000       0.000000000000000E+000  0.000000000000000E+000        
  0.000000000000000E+000  0.000000000000000E+000  0.000000000000000E+000        
   1.00000000000000       0.000000000000000E+000  0.000000000000000E+000        
   126.140000000000       0.000000000000000E+000  0.000000000000000E+000        
  0.000000000000000E+000  0.000000000000000E+000  0.000000000000000E+000        
  0.000000000000000E+000   1.00000000000000       0.000000000000000E+000        
  5.348000000000000E-002  0.000000000000000E+000  0.000000000000000E+000        
  0.000000000000000E+000  0.000000000000000E+000  0.000000000000000E+000        
  0.000000000000000E+000  0.000000000000000E+000   1.00000000000000             
    6    6                                                                      
   3.77500000000000        1.00000000000000       0.000000000000000E+000        
  0.000000000000000E+000  0.000000000000000E+000  0.000000000000000E+000        
  0.000000000000000E+000                                                        
   1.30000000000000       0.000000000000000E+000   1.00000000000000             
  0.000000000000000E+000  0.000000000000000E+000  0.000000000000000E+000        
  0.000000000000000E+000                                                        
  0.444000000000000       0.000000000000000E+000  0.000000000000000E+000        
   1.00000000000000       0.000000000000000E+000  0.000000000000000E+000        
  0.000000000000000E+000                                                        
   14.9270000000000       0.000000000000000E+000  0.000000000000000E+000        
  0.000000000000000E+000   1.00000000000000       0.000000000000000E+000        
  0.000000000000000E+000                                                        
   57.5440000000000       0.000000000000000E+000  0.000000000000000E+000        
  0.000000000000000E+000  0.000000000000000E+000   1.00000000000000             
  0.000000000000000E+000                                                        
  0.154000000000000       0.000000000000000E+000  0.000000000000000E+000        
  0.000000000000000E+000  0.000000000000000E+000  0.000000000000000E+000        
   1.00000000000000                                                             
    4    4                                                                      
   2.66600000000000        1.00000000000000       0.000000000000000E+000        
  0.000000000000000E+000  0.000000000000000E+000                                
  0.859000000000000       0.000000000000000E+000   1.00000000000000             
  0.000000000000000E+000  0.000000000000000E+000                                
   26.4830000000000       0.000000000000000E+000  0.000000000000000E+000        
   1.00000000000000       0.000000000000000E+000                                
  0.324000000000000       0.000000000000000E+000  0.000000000000000E+000        
  0.000000000000000E+000   1.00000000000000                                     
    2    2                                                                      
   1.84600000000000        1.00000000000000       0.000000000000000E+000        
  0.714000000000000       0.000000000000000E+000   1.00000000000000             
FINISH                                                                          
 
********************************************************************************
 ONE- AND TWO-ELECTRON INTEGRALS OVER SYMMETRY-ADAPTED AOS ARE CALCULATED.

  SPHERICAL HARMONICS ARE USED.
  
  INTEGRALS LESS THAN  0.10E-13 ARE NEGLECTED.

  NUCLEAR REPULSION ENERGY :   24.8018357980 A.U.
  @MOLECU-I, ONE ELECTRON INTEGRALS (CPU/WALL):        0.07/       0.09 SECONDS.
  @TWOEL-I,    4650240 INTEGRALS OF SYMMETRY TYPE  I I I I
  @TWOEL-I,   19908560 INTEGRALS OF SYMMETRY TYPE  I J I J
  @TWOEL-I,   10499448 INTEGRALS OF SYMMETRY TYPE  I I J J
  @TWOEL-I,   14717049 INTEGRALS OF SYMMETRY TYPE  I J K L
  @TWOEL-I, TOTAL NUMBER OF 2-E INTEGRALS   49775297.
  @MOLECU-I, TWO ELECTRON INTEGRALS (CPU/WALL):      240.33/      32.25 SECONDS.
 @CHECKOUT-I, Total execution time (CPU/WALL):      240.42/      32.35 seconds.

Running with 14 threads/proc

--executable xvmol finished with status     0 in       32.39 seconds (walltime).
 --invoking executable--
/nfs/workspaces/public/cfour_mpi/bin/xvmol2ja
 @GETMEM-I,  Allocated    3814 MB of main memory.
 @CHECKOUT-I, Total execution time (CPU/WALL):        0.15/       0.07 seconds.
--executable xvmol2ja finished with status     0 in        0.11 seconds (walltime).
 --invoking executable--
/nfs/workspaces/public/cfour_mpi/bin/xvprop
 @GETMEM-I,  Allocated    3814 MB of main memory.
   Property integrals will be calculated.
    --------------------------------------------------------------
                                   Property evaluated at 
    Property type                X             Y             Z
    --------------------------------------------------------------
    Dipole moment               ----          ----          ----  
    Quadrupole moment           ----          ----          ----  
    Octopole moment             ----          ----          ----  
    Relativisitic corr.         ----          ----          ----  
    Second moment            0.0000000     0.0000000     0.0000000
    Electron density         0.0000000     0.0000000     1.1611827
    Electron density         0.0000000     0.0000000    -0.7741579
    Field gradient           0.0000000     0.0000000     1.1611827
    Field gradient           0.0000000     0.0000000    -0.7741579
    Potential                0.0000000     0.0000000     1.1611827
    Potential                0.0000000     0.0000000    -0.7741579
    --------------------------------------------------------------
 @CHECKOUT-I, Total execution time (CPU/WALL):        1.30/       1.34 seconds.
--executable xvprop finished with status     0 in        1.37 seconds (walltime).
 --invoking executable--
/nfs/workspaces/public/cfour_mpi/bin/xvscf
  There are  218 functions in the AO basis.

  There are 4 irreducible representations.

       Irrep        # of functions
         1                 86
         2                 52
         3                 52
         4                 28


  Parameters for SCF calculation: 
        SCF reference function:  RHF  
  Maximum number of iterations:  150
     Full symmetry point group: CXv 
     Computational point group: C2v 
        Initial density matrix: MOREAD                 
     SCF convergence tolerance: 10**(-10)
  DIIS convergence acceleration:  ON
          Latest start for DIIS:   8
                     DIIS order:   6

  Memory information:    2523578 words required.
  Fock matrices are constructed from AO integral file.
 @GETMEM-I,  Allocated      19 MB of main memory.
  Initialization and symmetry analysis required      0.001 seconds.

  Adding electric field perturbation to one-electron Hamiltonian.
  Field direction     : Z
  Field strength      :  0.0002000 a.u.

  @INITGES-I, Occupancies from core Hamiltonian:

          Alpha population by irrep:   5    1    1    0
           Beta population by irrep:   5    1    1    0


 total no. of electrons in initial guess :  0.000000000000000E+000
  --------------------------------------------------------------------
  Iteration         Total Energy            Largest Density Difference
  --------------------------------------------------------------------
       0            24.801681031403756              0.0000000000D+00
   current occupation vector 
     5  1  1  0
     5  1  1  0
       1           -90.842382410291933              0.1953671783D+02
   current occupation vector 
     5  1  1  0
     5  1  1  0
       2           -93.723522184152330              0.8476926559D+02
   current occupation vector 
     5  1  1  0
     5  1  1  0
       3          -103.250312486430559              0.8475133178D+02
   current occupation vector 
     5  1  1  0
     5  1  1  0
       4          -100.712911944141538              0.1201880704D+02
   current occupation vector 
     5  1  1  0
     5  1  1  0
       5          -105.109573004354829              0.1204067370D+02
   current occupation vector 
     5  1  1  0
     5  1  1  0
       6          -102.421632340597924              0.6527421229D+01
   current occupation vector 
     5  1  1  0
     5  1  1  0
       7          -104.247951824149951              0.6523447099D+01
   current occupation vector 
     5  1  1  0
     5  1  1  0
       8          -101.606868610716489              0.5298424779D+01
   current occupation vector 
     5  1  1  0
     5  1  1  0
       9          -111.483523885134147              0.3599005239D+01
   current occupation vector 
     5  1  1  0
     5  1  1  0
      10          -112.559513181608096              0.8834672181D+00
   current occupation vector 
     5  1  1  0
     5  1  1  0
      11          -112.768551506468086              0.3892474447D+00
   current occupation vector 
     5  1  1  0
     5  1  1  0
      12          -112.771166035135437              0.4769357855D-01
   current occupation vector 
     5  1  1  0
     5  1  1  0
      13          -112.771275732593423              0.1507186918D-01
   current occupation vector 
     5  1  1  0
     5  1  1  0
      14          -112.771285602140594              0.5169836792D-02
   current occupation vector 
     5  1  1  0
     5  1  1  0
      15          -112.771285764240773              0.4284008049D-03
   current occupation vector 
     5  1  1  0
     5  1  1  0
      16          -112.771285767143056              0.5074414253D-04
   current occupation vector 
     5  1  1  0
     5  1  1  0
      17          -112.771285767264246              0.1972114584D-04
   current occupation vector 
     5  1  1  0
     5  1  1  0
      18          -112.771285767270669              0.1687903958D-05
   current occupation vector 
     5  1  1  0
     5  1  1  0
      19          -112.771285767271294              0.6571846467D-06
   current occupation vector 
     5  1  1  0
     5  1  1  0
      20          -112.771285767271948              0.4416375263D-07
   current occupation vector 
     5  1  1  0
     5  1  1  0
      21          -112.771285767272971              0.1944121447D-07
   current occupation vector 
     5  1  1  0
     5  1  1  0
      22          -112.771285767270953              0.8497895720D-08
   current occupation vector 
     5  1  1  0
     5  1  1  0
      23          -112.771285767271664              0.5577815987D-09
   current occupation vector 
     5  1  1  0
     5  1  1  0
      24          -112.771285767271209              0.2650209496D-09
   current occupation vector 
     5  1  1  0
     5  1  1  0
      25          -112.771285767271777              0.1798949878D-09
   current occupation vector 
     5  1  1  0
     5  1  1  0
      26          -112.771285767271294              0.1861217847D-09
   current occupation vector 
     5  1  1  0
     5  1  1  0

  SCF has converged.

 Density matrix saved to file den.dat
 total electron number:   13.9999999999999     
     E(SCF)=      -112.771285767271294              0.2796518572D-10

  Eigenvector printing suppressed.

 @PUTMOS-I, Writing converged MOs to NEWMOS. 
 @PUTMOS-I, Symmetry   1 Full Blocks 21 Partial Blocksize   2
 @PUTMOS-I, Symmetry   2 Full Blocks 13 Partial Blocksize   0
 @PUTMOS-I, Symmetry   3 Full Blocks 13 Partial Blocksize   0
 @PUTMOS-I, Symmetry   4 Full Blocks  7 Partial Blocksize   0
 @PUTFOCK-I, Writing converged Fock matrix to NEWFOCK. 
 @PUTFOCK-I, Symmetry   1 Full Blocks 21 Partial Blocksize   2
 @PUTFOCK-I, Symmetry   2 Full Blocks 13 Partial Blocksize   0
 @PUTFOCK-I, Symmetry   3 Full Blocks 13 Partial Blocksize   0
 @PUTFOCK-I, Symmetry   4 Full Blocks  7 Partial Blocksize   0


 
  ORBITAL EIGENVALUES (ALPHA)  (1H = 27.2113834 eV)

       MO #        E(hartree)               E(eV)           FULLSYM    COMPSYM
       ----   --------------------   --------------------   -------   ---------
    1     1         -20.6586469841        -562.1503636093     SG+        A1 (1)
    2     2         -11.3122932416        -307.8231485310     SG+        A1 (1)
    3     3          -1.5956894848         -43.4209183596     SG+        A1 (1)
    4     4          -0.8139498858         -22.1487024109     SG+        A1 (1)
    5    87          -0.6899212054         -18.7737104356      PI        B1 (2)
    6   139          -0.6899212054         -18.7737104356      PI        B2 (3)
    7     5          -0.5404082670         -14.7052565449     SG+        A1 (1)
  +++++++++++++++++++++++++++++++++++++++++++++++++++++++++++++++++++++++++++++
    8     6           0.0577242282           1.5707561059     SG+        A1 (1)
    9   140           0.0651068077           1.7716463075      PI        B2 (3)
   10    88           0.0651068077           1.7716463075      PI        B1 (2)
   11     7           0.0773299151           2.1042539680     SG+        A1 (1)
   12   141           0.1538704653           4.1870282245      PI        B2 (3)
   13    89           0.1538704653           4.1870282245      PI        B1 (2)
   14     8           0.1558342485           4.2404654837     SG+        A1 (1)
   15   142           0.1831274511           4.9831512818      PI        B2 (3)
   16    90           0.1831274511           4.9831512818      PI        B1 (2)
   17     9           0.2270542753           6.1784609388     SG+        A1 (1)
   18    10           0.2280342163           6.2051264869      DE        A1 (1)
   19   191           0.2280342163           6.2051264869      DE        A2 (4)
   20    11           0.3025598289           8.2330715058     SG+        A1 (1)
   21   143           0.3337594982           9.0820576686      PI        B2 (3)
   22    91           0.3337594982           9.0820576686      PI        B1 (2)
   23    12           0.3960367371          10.7767074946     SG+        A1 (1)
   24   144           0.3998402868          10.8802073426      PI        B2 (3)
   25    92           0.3998402868          10.8802073426      PI        B1 (2)
   26    13           0.5076878146          13.8148877693     SG+        A1 (1)
   27    14           0.5267623984          14.3339335840      DE        A1 (1)
   28   192           0.5267623984          14.3339335840      DE        A2 (4)
   29   145           0.6193280437          16.8527728477      PI        B2 (3)
   30    93           0.6193280437          16.8527728477      PI        B1 (2)
   31    15           0.6609800983          17.9861828734     SG+        A1 (1)
   32   146           0.7503692459          20.4185852415      PH        B2 (3)
   33    94           0.7503692459          20.4185852415      PH        B1 (2)
   34   193           0.7709535672          20.9787131017      DE        A2 (4)
   35    16           0.7709535672          20.9787131017      DE        A1 (1)
   36    17           0.7860344274          21.3890841708     SG+        A1 (1)
   37   147           0.8373051201          22.7842306460      PI        B2 (3)
   38    95           0.8373051201          22.7842306460      PI        B1 (2)
   39   148           0.8740820896          23.7849828627      PI        B2 (3)
   40    96           0.8740820896          23.7849828628      PI        B1 (2)
   41    18           0.8765217060          23.8513682012     SG+        A1 (1)
   42    19           0.8994884943          24.4763262812      DE        A1 (1)
   43   194           0.8994884943          24.4763262813      DE        A2 (4)
   44    20           0.9493275277          25.8325153271     SG+        A1 (1)
   45   149           1.1039571616          30.0402015825      PI        B2 (3)
   46    97           1.1039571616          30.0402015825      PI        B1 (2)
   47    21           1.2908792140          35.1266092152     SG+        A1 (1)
   48    98           1.4546904317          39.5841390663      PH        B1 (2)
   49   150           1.4546904317          39.5841390663      PH        B2 (3)
   50   195           1.5033238866          40.9075226513      DE        A2 (4)
   51    22           1.5033238866          40.9075226513      DE        A1 (1)
   52    23           1.5294889779          41.6195109825     SG+        A1 (1)
   53   151           1.5365140685          41.8106734188      PI        B2 (3)
   54    99           1.5365140685          41.8106734188      PI        B1 (2)
   55    24           1.6567630526          45.0828146261     SG+        A1 (1)
   56    25           1.7525004768          47.6879623841     SG+        A1 (1)
   57   196           1.7764198936          48.3388428054      DE        A2 (4)
   58    26           1.7764198936          48.3388428054      DE        A1 (1)
   59   152           1.8692702857          50.8654304220      PI        B2 (3)
   60   100           1.8692702857          50.8654304221      PI        B1 (2)
   61   153           1.9516021929          53.1057955161      PI        B2 (3)
   62   101           1.9516021929          53.1057955162      PI        B1 (2)
   63   197           2.1122213062          57.4764637880      PI        A2 (4)
   64    27           2.1122213062          57.4764637880      PI        A1 (1)
   65    28           2.1980257279          59.8113208044     SG+        A1 (1)
   66   198           2.2199593740          60.4081656572      DE        A2 (4)
   67    29           2.2199593740          60.4081656572      DE        A1 (1)
   68   154           2.2600454253          61.4989625703      PH        B2 (3)
   69   102           2.2600454253          61.4989625703      PH        B1 (2)
   70    30           2.3308654426          63.4260732123     SG+        A1 (1)
   71   155           2.3450927616          63.8132182455      PI        B2 (3)
   72   103           2.3450927616          63.8132182455      PI        B1 (2)
   73    31           2.3801183956          64.7663142014      DE        A1 (1)
   74   199           2.3801183956          64.7663142014      DE        A2 (4)
   75   156           2.4031199596          65.3922185768      PH        B2 (3)
   76   104           2.4031199596          65.3922185768      PH        B1 (2)
   77    32           2.5368573823          69.0313988603     SG+        A1 (1)
   78   157           2.6103227364          71.0304927785      PI        B2 (3)
   79   105           2.6103227364          71.0304927785      PI        B1 (2)
   80   158           2.9452380600          80.1440020538      PI        B2 (3)
   81   106           2.9452380600          80.1440020538      PI        B1 (2)
   82    33           3.0818683888          83.8619023154     SG+        A1 (1)
   83   200           3.0938322680          84.1874560205      DE        A2 (4)
   84    34           3.0938322680          84.1874560208      DE        A1 (1)
   85    35           3.4206669809          93.0810807005     SG+        A1 (1)
   86    36           3.7480495664         101.9896137539      PI        A1 (1)
   87   201           3.7480495664         101.9896137539      PI        A2 (4)
   88   159           3.7615023723         102.3556832123      PI        B2 (3)
   89   107           3.7615023723         102.3556832124      PI        B1 (2)
   90    37           3.9811766493         108.3333241884     SG+        A1 (1)
   91   160           4.0714215559         110.7890129412      PH        B2 (3)
   92   108           4.0714215559         110.7890129412      PH        B1 (2)
   93   202           4.1775690736         113.6774337406      DE        A2 (4)
   94    38           4.1775690736         113.6774337406      DE        A1 (1)
   95   161           4.2101720906         114.5646069378      PI        B2 (3)
   96   109           4.2101720906         114.5646069378      PI        B1 (2)
   97    39           4.3092473912         117.2605829283     SG+        A1 (1)
   98   110           4.4062944354         119.9013672563      PH        B1 (2)
   99   162           4.4062944354         119.9013672563      PH        B2 (3)
  100   203           4.4279830945         120.4915456734      DE        A2 (4)
  101    40           4.4279830945         120.4915456734      DE        A1 (1)
  102    41           4.6730221777         127.1593981129     SG+        A1 (1)
  103   163           4.8131574950         130.9726739608      PI        B2 (3)
  104   111           4.8131574950         130.9726739609      PI        B1 (2)
  105    42           4.9863843148         135.6864153684     SG+        A1 (1)
  106   204           5.1941455559         141.3398861562      DE        A2 (4)
  107    43           5.1941455559         141.3398861565      DE        A1 (1)
  108   112           5.2702128338         143.4097820196      PI        B1 (2)
  109   164           5.2702128338         143.4097820196      PI        B2 (3)
  110   205           5.9171787426         161.0146194115      PI        A2 (4)
  111    44           5.9171787426         161.0146194115      PI        A1 (1)
  112   113           5.9321511452         161.4220391975      PI        B1 (2)
  113   165           5.9321511452         161.4220391976      PI        B2 (3)
  114    45           6.1685101552         167.8536948392     SG+        A1 (1)
  115    46           6.2290367120         169.5007061824     SG+        A1 (1)
  116   166           6.2469169692         169.9872527164      PH        B2 (3)
  117   114           6.2469169692         169.9872527164      PH        B1 (2)
  118    47           6.3291834075         172.2258363102      DE        A1 (1)
  119   206           6.3291834075         172.2258363103      DE        A2 (4)
  120   167           6.3648653177         173.1967904505      PI        B2 (3)
  121   115           6.3648653177         173.1967904505      PI        B1 (2)
  122   116           6.4741997456         176.1719314858      PH        B1 (2)
  123   168           6.4741997456         176.1719314858      PH        B2 (3)
  124    48           6.6735398568         181.5962516785      DE        A1 (1)
  125   207           6.6735398568         181.5962516786      DE        A2 (4)
  126    49           7.1356919421         194.1720492602     SG+        A1 (1)
  127   169           7.7634313609         211.2537072601      PI        B2 (3)
  128   117           7.7634313609         211.2537072601      PI        B1 (2)
  129   208           7.7875888304         211.9110654247      DE        A2 (4)
  130    50           7.7875888304         211.9110654248      DE        A1 (1)
  131    51           8.1497601335         221.7662476102     SG+        A1 (1)
  132    52           8.6496970970         235.3702239990     SG+        A1 (1)
  133   170           8.7995404535         239.4476690238      PI        B2 (3)
  134   118           8.7995404535         239.4476690239      PI        B1 (2)
  135    53          10.0360235279         273.0940840290     SG+        A1 (1)
  136   119          10.1348666726         275.7837427357      PI        B1 (2)
  137   171          10.1348666726         275.7837427360      PI        B2 (3)
  138   209          10.6013294252         288.4768395396      PI        A2 (4)
  139    54          10.6013294252         288.4768395396      PI        A1 (1)
  140   172          10.9718271744         298.5585958404      PH        B2 (3)
  141   120          10.9718271744         298.5585958404      PH        B1 (2)
  142   210          11.2570300702         306.3193611844      DE        A2 (4)
  143    55          11.2570300702         306.3193611845      DE        A1 (1)
  144    56          11.2968645838         307.4033134070     SG+        A1 (1)
  145   173          11.4214647543         310.7938564183      PI        B2 (3)
  146   121          11.4214647543         310.7938564183      PI        B1 (2)
  147   122          11.8611532532         322.7583887395      PH        B1 (2)
  148   174          11.8611532532         322.7583887395      PH        B2 (3)
  149    57          12.3111104841         335.0023474629     SG+        A1 (1)
  150    58          12.3995168766         337.4080077051      DE        A1 (1)
  151   211          12.3995168766         337.4080077051      DE        A2 (4)
  152   123          12.9288130449         351.8108886710      PI        B1 (2)
  153   175          12.9288130449         351.8108886710      PI        B2 (3)
  154   212          12.9941496096         353.5887869844      DE        A2 (4)
  155    59          12.9941496096         353.5887869844      DE        A1 (1)
  156    60          13.8183275124         376.0158078875     SG+        A1 (1)
  157   176          14.7826648465         402.2567608106      PI        B2 (3)
  158   124          14.7826648465         402.2567608107      PI        B1 (2)
  159    61          15.7974733229         429.8711033394     SG+        A1 (1)
  160    62          18.4186261361         501.1962974915     SG+        A1 (1)
  161   125          19.5922244152         533.1315302215      PI        B1 (2)
  162   177          19.5922244152         533.1315302222      PI        B2 (3)
  163    63          21.1605429349         575.8076467531     SG+        A1 (1)
  164    64          26.6631565240         725.5413748290      DE        A1 (1)
  165   213          26.6631565240         725.5413748292      DE        A2 (4)
  166   126          27.4048224488         745.7231306619      PI        B1 (2)
  167   178          27.4048224488         745.7231306619      PI        B2 (3)
  168    65          28.6777244297         780.3605544968     SG+        A1 (1)
  169   127          33.8807319721         921.9415875663      PI        B1 (2)
  170   179          33.8807319722         921.9415875668      PI        B2 (3)
  171    66          35.5322961561         966.8829337853     SG+        A1 (1)
  172    67          37.3223793654        1015.5935743120     SG+        A1 (1)
  173   214          47.1674113551        1283.4905143695      DE        A2 (4)
  174    68          47.1674113551        1283.4905143695      DE        A1 (1)
  175   180          48.0232408792        1306.7788196747      PI        B2 (3)
  176   128          48.0232408792        1306.7788196747      PI        B1 (2)
  177    69          48.7532408553        1326.6431289059     SG+        A1 (1)
  178    70          64.5622274431        1756.8275241119     SG+        A1 (1)
  179   129          67.0225307948        1823.7757818947      PI        B1 (2)
  180   181          67.0225307948        1823.7757818953      PI        B2 (3)
  181    71          68.1859745477        1855.4346959212     SG+        A1 (1)
  182   130          98.7312708617        2686.6144649876      PH        B1 (2)
  183   182          98.7312708617        2686.6144649876      PH        B2 (3)
  184    72          98.7674468813        2687.5988645270      DE        A1 (1)
  185   215          98.7674468813        2687.5988645270      DE        A2 (4)
  186   183          98.8415738742        2689.6159625504      PI        B2 (3)
  187   131          98.8415738742        2689.6159625505      PI        B1 (2)
  188    73          98.8672262880        2690.3140002162     SG+        A1 (1)
  189   132         103.2923990540        2810.7290729630      PH        B1 (2)
  190   184         103.2923990540        2810.7290729630      PH        B2 (3)
  191   216         103.3564667947        2812.4724448190      DE        A2 (4)
  192    74         103.3564667947        2812.4724448197      DE        A1 (1)
  193   133         103.4023810043        2813.7218339811      PI        B1 (2)
  194   185         103.4023810043        2813.7218339811      PI        B2 (3)
  195    75         103.4918653054        2816.1568256065     SG+        A1 (1)
  196   217         115.2844521298        3137.0494269625      DE        A2 (4)
  197    76         115.2844521298        3137.0494269626      DE        A1 (1)
  198   186         115.6446650159        3146.8513179110      PI        B2 (3)
  199   134         115.6446650159        3146.8513179110      PI        B1 (2)
  200    77         116.1974686429        3161.8938693513     SG+        A1 (1)
  201   135         117.1180255082        3186.9434951541      PI        B1 (2)
  202   187         117.1180255082        3186.9434951544      PI        B2 (3)
  203    78         118.7000847706        3229.9935163052     SG+        A1 (1)
  204    79         123.2104432523        3352.7266102222     SG+        A1 (1)
  205   218         198.6120696107        5404.5091740452      DE        A2 (4)
  206    80         198.6120696107        5404.5091740452      DE        A1 (1)
  207   136         199.0819770652        5417.2960059525      PI        B1 (2)
  208   188         199.0819770652        5417.2960059525      PI        B2 (3)
  209    81         199.4740796443        5427.9656595639     SG+        A1 (1)
  210    82         217.0027256398        5904.9443662308     SG+        A1 (1)
  211   137         225.4206762356        6134.0084473345      PI        B1 (2)
  212   189         225.4206762356        6134.0084473349      PI        B2 (3)
  213    83         226.3618176467        6159.6182071060     SG+        A1 (1)
  214   138         395.5631656677       10763.8209599025      PI        B1 (2)
  215   190         395.5631656678       10763.8209599030      PI        B2 (3)
  216    84         396.7423639207       10795.9085756690     SG+        A1 (1)
  217    85         509.6599512143       13868.5523361179     SG+        A1 (1)
  218    86         895.8486414140       24377.2808498843     SG+        A1 (1)


  VSCF finished.

 @CHECKOUT-I, Total execution time (CPU/WALL):       49.02/      11.04 seconds.
--executable xvscf finished with status     0 in       11.08 seconds (walltime).
 --invoking executable--
/nfs/workspaces/public/cfour_mpi/bin/xvtran
 @GETMEM-I,  Allocated    3814 MB of main memory.
  Full RHF integral transformation
  Transformation of IIII integrals :
  1 pass through the AO integral file was required.
     4650240 AO integrals were read.
     8850799 MO integrals were written to HF2.
  Transformation of IIJJ integrals :
  1 pass through the AO integral file was required.
    10499448 AO integrals were read.
    14666715 MO integrals were written to HF2.
  Transformation of IJIJ integrals :
  1 pass through the AO integral file was required.
    19908560 AO integrals were read.
    27633052 MO integrals were written to HF2.
  Transformation of IJKL integrals :
  1 pass through the AO integral file was required.
    14717049 AO integrals were read.
    18668838 MO integrals were written to HF2.
  Summary of active molecular orbitals: 
------------------------------------------------------------------------
 
  Index      Eigenvalue    Symmetry    Index      Eigenvalue    Symmetry
------------------------------------------------------------------------
     1       -20.6586470        1       110         4.2101721        2
     2       -11.3122932        1       111         4.4062944        2
     3        -1.5956895        1       112         4.8131575        2
     4        -0.8139499        1       113         5.2702128        2
     5        -0.5404083        1       114         5.9321511        2
     6        -0.6899212        2       115         6.2469170        2
     7        -0.6899212        3       116         6.3648653        2
     8         0.0577242        1       117         6.4741997        2
     9         0.0773299        1       118         7.7634314        2
    10         0.1558342        1       119         8.7995405        2
    11         0.2270543        1       120        10.1348667        2
    12         0.2280342        1       121        10.9718272        2
    13         0.3025598        1       122        11.4214648        2
    14         0.3960367        1       123        11.8611533        2
    15         0.5076878        1       124        12.9288130        2
    16         0.5267624        1       125        14.7826648        2
    17         0.6609801        1       126        19.5922244        2
    18         0.7709536        1       127        27.4048224        2
    19         0.7860344        1       128        33.8807320        2
    20         0.8765217        1       129        48.0232409        2
    21         0.8994885        1       130        67.0225308        2
    22         0.9493275        1       131        98.7312709        2
    23         1.2908792        1       132        98.8415739        2
    24         1.5033239        1       133       103.2923991        2
    25         1.5294890        1       134       103.4023810        2
    26         1.6567631        1       135       115.6446650        2
    27         1.7525005        1       136       117.1180255        2
    28         1.7764199        1       137       199.0819771        2
    29         2.1122213        1       138       225.4206762        2
    30         2.1980257        1       139       395.5631657        2
    31         2.2199594        1       140         0.0651068        3
    32         2.3308654        1       141         0.1538705        3
    33         2.3801184        1       142         0.1831275        3
    34         2.5368574        1       143         0.3337595        3
    35         3.0818684        1       144         0.3998403        3
    36         3.0938323        1       145         0.6193280        3
    37         3.4206670        1       146         0.7503692        3
    38         3.7480496        1       147         0.8373051        3
    39         3.9811766        1       148         0.8740821        3
    40         4.1775691        1       149         1.1039572        3
    41         4.3092474        1       150         1.4546904        3
    42         4.4279831        1       151         1.5365141        3
    43         4.6730222        1       152         1.8692703        3
    44         4.9863843        1       153         1.9516022        3
    45         5.1941456        1       154         2.2600454        3
    46         5.9171787        1       155         2.3450928        3
    47         6.1685102        1       156         2.4031200        3
    48         6.2290367        1       157         2.6103227        3
    49         6.3291834        1       158         2.9452381        3
    50         6.6735399        1       159         3.7615024        3
    51         7.1356919        1       160         4.0714216        3
    52         7.7875888        1       161         4.2101721        3
    53         8.1497601        1       162         4.4062944        3
    54         8.6496971        1       163         4.8131575        3
    55        10.0360235        1       164         5.2702128        3
    56        10.6013294        1       165         5.9321511        3
    57        11.2570301        1       166         6.2469170        3
    58        11.2968646        1       167         6.3648653        3
    59        12.3111105        1       168         6.4741997        3
    60        12.3995169        1       169         7.7634314        3
    61        12.9941496        1       170         8.7995405        3
    62        13.8183275        1       171        10.1348667        3
    63        15.7974733        1       172        10.9718272        3
    64        18.4186261        1       173        11.4214648        3
    65        21.1605429        1       174        11.8611533        3
    66        26.6631565        1       175        12.9288130        3
    67        28.6777244        1       176        14.7826648        3
    68        35.5322962        1       177        19.5922244        3
    69        37.3223794        1       178        27.4048224        3
    70        47.1674114        1       179        33.8807320        3
    71        48.7532409        1       180        48.0232409        3
    72        64.5622274        1       181        67.0225308        3
    73        68.1859745        1       182        98.7312709        3
    74        98.7674469        1       183        98.8415739        3
    75        98.8672263        1       184       103.2923991        3
    76       103.3564668        1       185       103.4023810        3
    77       103.4918653        1       186       115.6446650        3
    78       115.2844521        1       187       117.1180255        3
    79       116.1974686        1       188       199.0819771        3
    80       118.7000848        1       189       225.4206762        3
    81       123.2104433        1       190       395.5631657        3
    82       198.6120696        1       191         0.2280342        4
    83       199.4740796        1       192         0.5267624        4
    84       217.0027256        1       193         0.7709536        4
    85       226.3618176        1       194         0.8994885        4
    86       396.7423639        1       195         1.5033239        4
    87       509.6599512        1       196         1.7764199        4
    88       895.8486414        1       197         2.1122213        4
    89         0.0651068        2       198         2.2199594        4
    90         0.1538705        2       199         2.3801184        4
    91         0.1831275        2       200         3.0938323        4
    92         0.3337595        2       201         3.7480496        4
    93         0.3998403        2       202         4.1775691        4
    94         0.6193280        2       203         4.4279831        4
    95         0.7503692        2       204         5.1941456        4
    96         0.8373051        2       205         5.9171787        4
    97         0.8740821        2       206         6.3291834        4
    98         1.1039572        2       207         6.6735399        4
    99         1.4546904        2       208         7.7875888        4
   100         1.5365141        2       209        10.6013294        4
   101         1.8692703        2       210        11.2570301        4
   102         1.9516022        2       211        12.3995169        4
   103         2.2600454        2       212        12.9941496        4
   104         2.3450928        2       213        26.6631565        4
   105         2.4031200        2       214        47.1674114        4
   106         2.6103227        2       215        98.7674469        4
   107         2.9452381        2       216       103.3564668        4
   108         3.7615024        2       217       115.2844521        4
   109         4.0714216        2       218       198.6120696        4
------------------------------------------------------------------------
  -20.6586469840883       -11.3122932416234       -1.59568948484830     
 -0.813949885802101      -0.540408266962647      -0.689921205388559     
 -0.689921205388495       5.772422823254326E-002  7.732991509664304E-002
  0.155834248532447       0.227054275335495       0.228034216258005     
  0.302559828906906       0.396036737131741       0.507687814552824     
  0.526762398416006       0.660980098255777       0.770953567236818     
  0.786034427445675       0.876521706030783       0.899488494260671     
  0.949327527651602        1.29087921399809        1.50332388655061     
   1.52948897785634        1.65676305255595        1.75250047684408     
   1.77641989364780        2.11222130617511        2.19802572788107     
   2.21995937395990        2.33086544259649        2.38011839564752     
   2.53685738227871        3.08186838877789        3.09383226803527     
   3.42066698088119        3.74804956641425        3.98117664934480     
   4.17756907355901        4.30924739123349        4.42798309450892     
   4.67302217765433        4.98638431475050        5.19414555588265     
   5.91717874261012        6.16851015517139        6.22903671197973     
   6.32918340749323        6.67353985679893        7.13569194207924     
   7.78758883037205        8.14976013348150        8.64969709695199     
   10.0360235278964        10.6013294252273        11.2570300701610     
   11.2968645837749        12.3111104841097        12.3995168766422     
   12.9941496096235        13.8183275124303        15.7974733228512     
   18.4186261361317        21.1605429348778        26.6631565240094     
   28.6777244297247        35.5322961560761        37.3223793653955     
[...]
 Convergence information after     8 iterations: 
 Largest element of residual vector : -0.20027813E-04.
 Largest element of DIIS residual   :  0.14846283E-04.
 Convergence information after     9 iterations: 
 Largest element of residual vector :  0.69594889E-05.
 Largest element of DIIS residual   :  0.35251085E-05.
 Convergence information after    10 iterations: 
 Largest element of residual vector :  0.28818327E-05.
 Largest element of DIIS residual   :  0.17764334E-05.
 Convergence information after    11 iterations: 
 Largest element of residual vector :  0.88941116E-06.
 Largest element of DIIS residual   :  0.44860608E-06.
 Convergence information after    12 iterations: 
 Largest element of residual vector :  0.37365371E-06.
 Largest element of DIIS residual   :  0.23548618E-06.
 Convergence information after    13 iterations: 
 Largest element of residual vector :  0.15233265E-06.
 Largest element of DIIS residual   :  0.13631238E-06.
 Convergence information after    14 iterations: 
 Largest element of residual vector :  0.97308300E-07.
 Largest element of DIIS residual   :  0.68676334E-07.
 Perturbed amplitude equations converged in    14 iterations.
  Dominant contributions to perturbed wavefunction:
    7    7  142   37   0.2595508652 ABAB
    7    7   37  142   0.2595508652 ABAB
    7    7  142   27   0.2193978641 ABAB
    7    7   27  142   0.2193978641 ABAB
    7    7  142   63   0.2053322213 ABAB
    7    7   63  142   0.2053322213 ABAB
    7    7  142   55   0.1892434258 ABAB
    7    7   55  142   0.1892434258 ABAB
    7    7  142   47   0.1802082798 ABAB
    7    7   47  142   0.1802082798 ABAB
    7    6   37   91   0.1764836198 ABAB
    6    7   91   37   0.1764836198 ABAB
    7    7  142   51  -0.1497114212 ABAB
    7    7   51  142  -0.1497114212 ABAB
    7    6   27   91   0.1485807622 ABAB
    6    7   91   27   0.1485807622 ABAB
    7    7  143   37   0.1451948809 ABAB
    7    7   37  143   0.1451948809 ABAB
    7    7  142   43   0.1409909112 ABAB
    7    7   43  142   0.1409909112 ABAB
  norm of converged amps    2.74682242452067     
 Starting iterative solution of the perturbed Lambda equations.
 The DIIS procedure is used to accelerate convergence.
 Convergence criterion is 10**(-7).
 Maximum number of iterations is 100.
 Convergence information after     1 iterations: 
 Largest element of residual vector : -0.63805892E-01.
 Largest element of DIIS residual   : -0.63805892E-01.
 Convergence information after     2 iterations: 
 Largest element of residual vector :  0.62930880E-02.
 Largest element of DIIS residual   :  0.58863717E-02.
 Convergence information after     3 iterations: 
 Largest element of residual vector : -0.38226279E-02.
 Largest element of DIIS residual   : -0.34151669E-02.
 Convergence information after     4 iterations: 
 Largest element of residual vector : -0.23962733E-02.
 Largest element of DIIS residual   : -0.18244713E-02.
 Convergence information after     5 iterations: 
 Largest element of residual vector : -0.13035711E-02.
 Largest element of DIIS residual   : -0.58918929E-03.
 Convergence information after     6 iterations: 
 Largest element of residual vector : -0.40831380E-03.
 Largest element of DIIS residual   : -0.97058828E-04.
 Convergence information after     7 iterations: 
 Largest element of residual vector : -0.68480167E-04.
 Largest element of DIIS residual   : -0.31361429E-04.
 Convergence information after     8 iterations: 
 Largest element of residual vector : -0.15761370E-04.
 Largest element of DIIS residual   :  0.12607558E-04.
 Convergence information after     9 iterations: 
 Largest element of residual vector :  0.60147947E-05.
 Largest element of DIIS residual   :  0.30515003E-05.
 Convergence information after    10 iterations: 
 Largest element of residual vector :  0.24497895E-05.
 Largest element of DIIS residual   :  0.15336438E-05.
 Convergence information after    11 iterations: 
 Largest element of residual vector :  0.77770915E-06.
 Largest element of DIIS residual   :  0.42557776E-06.
 Convergence information after    12 iterations: 
 Largest element of residual vector :  0.33945949E-06.
 Largest element of DIIS residual   :  0.22058104E-06.
 Convergence information after    13 iterations: 
 Largest element of residual vector :  0.14293976E-06.
 Largest element of DIIS residual   :  0.12611723E-06.
 Convergence information after    14 iterations: 
 Largest element of residual vector :  0.90138039E-07.
 Largest element of DIIS residual   :  0.63265664E-07.
 Perturbed Lambda equations converged in    14 iterations.
  Dominant contributions to perturbed wavefunction:
    7    7  142   37   0.2490012825 ABAB
    7    7   37  142   0.2490012825 ABAB
    7    7  142   27   0.2097140250 ABAB
    7    7   27  142   0.2097140250 ABAB
    7    7  142   63   0.1966769776 ABAB
    7    7   63  142   0.1966769776 ABAB
    7    7  142   55   0.1801080030 ABAB
    7    7   55  142   0.1801080030 ABAB
    7    7  142   47   0.1725525091 ABAB
    7    7   47  142   0.1725525091 ABAB
    7    6   37   91   0.1675156779 ABAB
    6    7   91   37   0.1675156779 ABAB
    7    7  142   51  -0.1437476884 ABAB
    7    7   51  142  -0.1437476884 ABAB
    7    6   27   91   0.1403207842 ABAB
    6    7   91   27   0.1403207842 ABAB
    7    7  143   37   0.1400012306 ABAB
    7    7   37  143   0.1400012306 ABAB
    7    7  142   19   0.1338398818 ABAB
    7    7   19  142   0.1338398818 ABAB
        The DBOC first-order density matrix is being calculated 
             (Symmetry block 3, perturbation   2)
 term   8.96674891746551     
 final tnorm  0.899740542217867     
  norm contr. I: |<0|L dT/dx|0>|^2   0.000000000000000E+000
  norm contr. II: <0|[nabla(1+L)e-T][nabla e^T]|0>   8.96674891746551     
  total norm contribution   8.96674891746551     
 oo  1.194916720563304E-002
 vv  -59.8460801690692     
 vo  2.564760792787478E-002
  Correlated perturbed 1-el contribution to DBOC  -59.8084833939357       cm**-1
  SUM_I |dc_I/dx|^2 contribution to DBOC   29.9973507219830       cm**-1
 
 
  The total diagonal Born-Oppenheimer correction (DBOC) is:      0.0038797829 a.u.
  The total diagonal Born-Oppenheimer correction (DBOC) is:        851.513917 cm-1
 
 Total CC energy including DBOC  -113.253728999704     
 First-order density matrix is being calculated  (Symmetry block 3, perturbation   2)
 Calculation of the contributions of <pq||rs> to dI(i,j)/dx required   2.0 seconds.
 Calculation of the contributions of <pq||rs> to dI(a,b)/dx required  16.1 seconds.
 Calculation of the contributions of <pq||rs> to dI(i,a)/dx required   9.7 seconds.
 First-order Z-vector equations are solved for 1 perturbation.
 Convergence reached after  17 iterations.
        U*G(pq,rs) contribution is being calculated
             (Symmetry block 3, perturbation   2)

 CCSD contribution to force constants 

        0.0000000000        0.0000000000        0.0000000000
        0.0000000000        0.0000000000        0.0000000000
        0.0000000000        0.0000000000        0.0000000000
        0.0000000000        0.0000000000        0.0000000000
        0.0000000000        0.0000000000        0.0000000000
        0.0000000000        0.0000000000        0.0000000000
        0.0000000000        0.0000000000        0.0000000000
        0.0000000000        0.0000000000        0.0000000000
        0.0000000000        0.0000000000        0.0000000000
        0.0000000000        0.0000000000        0.0000000000
        0.0000000000        0.0000000000        0.0000000000
        0.0000000000       -8.8651757656        8.8651757656

 CCSD contribution to dipole derivatives 

        0.0000000000        0.0000000000        0.0000000000
        0.0000000000        0.0000000000        0.0000000000
        0.0000000000        0.0000000000        0.0000000000
        0.0000000000        0.0000000000       -0.0399180786
        0.0000000000        0.0000000000        0.0000000000
        0.0000000000        0.0000000000        0.0000000000
 @CHECKOUT-I, Total execution time (CPU/WALL):     1194.04/     462.13 seconds.
--executable xsdcc finished with status     0 in      462.36 seconds (walltime).
 --invoking executable--
/nfs/workspaces/public/cfour_mpi/bin/xanti
 @GETMEM-I,  Allocated    3814 MB of main memory.
 CCSD MO derivative gammas will be sorted to Mulliken order.
 @CHECKOUT-I, Total execution time (CPU/WALL):       13.35/      25.61 seconds.
--executable xanti finished with status     0 in       25.76 seconds (walltime).
 --invoking executable--
/nfs/workspaces/public/cfour_mpi/bin/xbcktrn
 @GETMEM-I,  Allocated    3814 MB of main memory.
 CCSD MO derivative gammas will be transformed to the AO basis.
 @CHECKOUT-I, Total execution time (CPU/WALL):       22.27/      10.65 seconds.
--executable xbcktrn finished with status     0 in       10.71 seconds (walltime).
 --invoking executable--
/nfs/workspaces/public/cfour_mpi/bin/xvdint
 @GETMEM-I,  Allocated    3814 MB of main memory.
 One- and two-electron integral derivatives are calculated
 for RHF-CC/MBPT hessians and dipole derivatives.
 Spherical gaussians are used.
  magnet F F
                    8722  records have been written to the Sort file.
  Total length of Sort file :             178609116  words.
 Evaluation of 2el integral derivatives

                      Two-electron integral gradient
                      ------------------------------

                         C #1 z     0.0000000000
                         O #2 z     0.0000000000


 C #1       0.0000000000           -1.2065128549            0.0000000000
 O #2       0.0000000000            1.2065128549            0.0000000000


 Evaluation of 2e integral derivatives required  358.26 seconds.
  contribution to Hessian
        0.0000000000        0.0000000000        0.0000000000
        0.0000000000       -1.2065128549        1.2065128549
 @CHECKOUT-I, Total execution time (CPU/WALL):      358.24/      72.05 seconds.
--executable xvdint finished with status     0 in       72.23 seconds (walltime).
 --invoking executable--
/nfs/workspaces/public/cfour_mpi/bin/xanti
 @GETMEM-I,  Allocated    3814 MB of main memory.
 CCSD MO gammas will be sorted to Mulliken order.
 @CHECKOUT-I, Total execution time (CPU/WALL):       16.49/      49.77 seconds.
--executable xanti finished with status     0 in       49.86 seconds (walltime).
 --invoking executable--
/nfs/workspaces/public/cfour_mpi/bin/xbcktrn
 @GETMEM-I,  Allocated    3814 MB of main memory.
 CCSD MO gammas will be transformed to the AO basis.
 @CHECKOUT-I, Total execution time (CPU/WALL):       29.44/      10.79 seconds.
--executable xbcktrn finished with status     0 in       10.84 seconds (walltime).
 --invoking executable--
/nfs/workspaces/public/cfour_mpi/bin/xvdint
 @GETMEM-I,  Allocated    3814 MB of main memory.
 One- and two-electron integral derivatives are calculated
 for RHF-CC/MBPT hessians and dipole derivatives.
 Spherical gaussians are used.
  magnet F F

                     Kinetic energy integral gradient
                     --------------------------------

                         C #1 z    -1.8198887213
                         O #2 z     1.8198887213


 C #1       0.0000000000            0.0000000000           -1.8198887213
 O #2       0.0000000000            0.0000000000            1.8198887213



                   Nuclear attraction integral gradient
                   ------------------------------------

                         C #1 z    26.4294350237
                         O #2 z   -26.4294350237


 C #1       0.0000000000            0.0000000000           26.4294350237
 O #2       0.0000000000            0.0000000000          -26.4294350237



                      Reorthonormalization gradient
                      -----------------------------

                         C #1 z     0.0000000000
                         O #2 z     0.0000000000


 C #1       0.0000000000            0.0000000000            0.0000000000
 O #2       0.0000000000            0.0000000000            0.0000000000



                     Kinetic energy integral Hessian
                     -------------------------------


           Symmetry 1

           C #1 z      O #2 z

 C #1 z    0.882528
 O #2 z   -0.882528    0.882528


           Symmetry 2

           C #1 x      O #2 x

 C #1 x   -2.912283
 O #2 x    2.912283   -2.912283


           Symmetry 3

           C #1 y      O #2 y

 C #1 y   -2.912283
 O #2 y    2.912283   -2.912283




           C #1 x      C #1 y      C #1 z      O #2 x      O #2 y      O #2 z

 C #1 x   -2.912283
 C #1 y    0.000000   -2.912283
 C #1 z    0.000000    0.000000    0.882528

 O #2 x    2.912283    0.000000    0.000000   -2.912283
 O #2 y    0.000000    2.912283    0.000000    0.000000   -2.912283
 O #2 z    0.000000    0.000000   -0.882528    0.000000    0.000000    0.882528




                   Nuclear attraction integral Hessian
                   -----------------------------------


           Symmetry 1

           C #1 z      O #2 z

 C #1 z  -13.182440
 O #2 z   13.182440  -13.182440


           Symmetry 2

           C #1 x      O #2 x

 C #1 x   27.593690
 O #2 x  -27.593690   27.593690


           Symmetry 3

           C #1 y      O #2 y

 C #1 y   27.593690
 O #2 y  -27.593690   27.593690




           C #1 x      C #1 y      C #1 z      O #2 x      O #2 y      O #2 z

 C #1 x   27.593690
 C #1 y    0.000000   27.593690
 C #1 z    0.000000    0.000000  -13.182440

 O #2 x  -27.593690    0.000000    0.000000   27.593690
 O #2 y    0.000000  -27.593690    0.000000    0.000000   27.593690
 O #2 z    0.000000    0.000000   13.182440    0.000000    0.000000  -13.182440




                Highest order reorthonormalization Hessian
                ------------------------------------------


           Symmetry 1

           C #1 z      O #2 z

 C #1 z    0.000000
 O #2 z    0.000000    0.000000


           Symmetry 2

           C #1 x      O #2 x

 C #1 x    0.000000
 O #2 x    0.000000    0.000000


           Symmetry 3

           C #1 y      O #2 y

 C #1 y    0.000000
 O #2 y    0.000000    0.000000




           C #1 x      C #1 y      C #1 z      O #2 x      O #2 y      O #2 z




                Electronic contributions to dipole moment
                -----------------------------------------

                               au             Debye

                    z     -0.95352414     -2.42361704

  Conversion factor used: 1 a.u. =   2.54174691 Debye 



   Electronic contributions to static part of dipole moment derivatives
   --------------------------------------------------------------------


                     Total dipole moment derivatives
                     -------------------------------


           Symmetry 1
                              Ez

               C #1 z    -5.77677630
               O #2 z    -8.22322370

           Symmetry 2
                              Ex

               C #1 x    -5.86261563
               O #2 x    -8.13738437

           Symmetry 3
                              Ey

               C #1 y    -5.86261563
               O #2 y    -8.13738437



                       Ex          Ey          Ez

      C #1    x   -5.862616    0.000000    0.000000
      C #1    y    0.000000   -5.862616    0.000000
      C #1    z    0.000000    0.000000   -5.776776

      O #2    x   -8.137384    0.000000    0.000000
      O #2    y    0.000000   -8.137384    0.000000
      O #2    z    0.000000    0.000000   -8.223224

 Evaluation of 1e integral derivatives required    1.81 seconds.
                    8815  records have been written to the Sort file.
  Total length of Sort file :             180513570  words.
 Evaluation of 2el integral derivatives

                      Two-electron integral gradient
                      ------------------------------

                         C #1 z   -11.7883351606
                         O #2 z    11.7883351606


 C #1       0.0000000000            0.0000000000          -11.7883351606
 O #2       0.0000000000            0.0000000000           11.7883351606


 Evaluation of 2e integral derivatives required  726.99 seconds.

                            Molecular gradient
                            ------------------

                         C #1 z     0.0059807471
                         O #2 z    -0.0059807471


 C #1       0.0000000000            0.0000000000            0.0059807471
 O #2       0.0000000000            0.0000000000           -0.0059807471


  Molecular gradient norm 0.846E-02

                            Molecular hessian
                            -----------------


           Symmetry 1

           C #1 z      O #2 z

 C #1 z   86.733847
 O #2 z  -86.733847   86.733847


           Symmetry 2

           C #1 x      O #2 x

 C #1 x    9.689358
 O #2 x   -9.689358    9.689358


           Symmetry 3

           C #1 y      O #2 y

 C #1 y    9.689358
 O #2 y   -9.689358    9.689358




           C #1 x      C #1 y      C #1 z      O #2 x      O #2 y      O #2 z

 C #1 x    9.689358
 C #1 y    0.000000    9.689358
 C #1 z    0.000000    0.000000   86.733847

 O #2 x   -9.689358    0.000000    0.000000    9.689358
 O #2 y    0.000000   -9.689358    0.000000    0.000000    9.689358
 O #2 z    0.000000    0.000000  -86.733847    0.000000    0.000000   86.733847




                           Total dipole moment
                           -------------------

                               au             Debye

                    z     -0.17969126     -0.45672970

  Conversion factor used: 1 a.u. =   2.54174691 Debye 



                     Total dipole moment derivatives
                     -------------------------------


           Symmetry 1
                              Ez

               C #1 z     0.68671004
               O #2 z    -0.68671004

           Symmetry 2
                              Ex

               C #1 x    -0.09623002
               O #2 x     0.09623002

           Symmetry 3
                              Ey

               C #1 y    -0.09623002
               O #2 y     0.09623002



                       Ex          Ey          Ez

      C #1    x   -0.096230    0.000000    0.000000
      C #1    y    0.000000   -0.096230    0.000000
      C #1    z    0.000000    0.000000    0.686710

      O #2    x    0.096230    0.000000    0.000000
      O #2    y    0.000000    0.096230    0.000000
      O #2    z    0.000000    0.000000   -0.686710

 @CHECKOUT-I, Total execution time (CPU/WALL):      728.78/     123.60 seconds.
--executable xvdint finished with status     0 in      123.76 seconds (walltime).
 --invoking executable--
/nfs/workspaces/public/cfour_mpi/bin/xjoda
  @GTFLGS-I, Hessian will be transformed to curvilinear coordinates.
  @GTFLGS-I, Hessian will be transformed to curvilinear coordinates.
  igrd and ihes are                      0                     1
  gradient from JOBARC 
   0.000000000000000   0.000000000000000   0.005980747103981
   0.000000000000000   0.000000000000000  -0.005980747103981
 
  @PROJFCM-I, Projecting force constant matrix onto totally symmetric subspace.
  Largest difference between matrix elements of symmetrized
  and unsymmetrized FCM :     0.1017355089E-09.
  read isotopes from ZMAT file 
 
  Summary of diagonal Born-Oppenheimer correction at the correlated level
  The total diagonal Born-Oppenheimer correction (DBOC) is:      0.0038797829 a.u.
  The total diagonal Born-Oppenheimer correction (DBOC) is:        851.513917 cm-1
  The total diagonal Born-Oppenheimer correction (DBOC) is:            10.186 kJ/mole
  hellooooooo 
  readis is  F
 
 @CHECKOUT-I, Total execution time (CPU/WALL):        0.02/       0.08 seconds.
--executable xjoda finished with status     0 in        0.11 seconds (walltime).
  The final electronic energy is      -113.253728999703554 a.u. 
  This computation required                         4390.09 seconds (walltime).
