 --invoking executable--
/nfs/workspaces/public/cfour_mpi/bin/xjoda


   *************************************************************************
         <<<     CCCCCC     CCCCCC   |||     CCCCCC     CCCCCC   >>>
       <<<      CCC        CCC       |||    CCC        CCC         >>>
      <<<      CCC        CCC        |||   CCC        CCC            >>>
    <<<        CCC        CCC        |||   CCC        CCC              >>>
      <<<      CCC        CCC        |||   CCC        CCC            >>>
       <<<      CCC        CCC       |||    CCC        CCC         >>>
         <<<     CCCCCC     CCCCCC   |||     CCCCCC     CCCCCC   >>>
   *************************************************************************

     ****************************************************************
     * CFOUR Coupled-Cluster techniques for Computational Chemistry *
     ****************************************************************
 

   Department of Chemistry                Institut fuer Physikalische Chemie
   University of Florida                  Universitaet Mainz
   Gainesville, FL 32611, USA             D-55099 Mainz, Germany

   Department of Chemistry                Fakultaet fuer Chemie und Biowiss.
   Johns Hopkins University               Karlsruher Institut fuer Technologie
   Baltimore, MD 21218, USA               D-76131 Karlsruhe, Germany

   Department of Chemistry                Department of Physical Chemistry
   Southern Methodist University          Eotvos Lorand University
   Dallas, TX 75275, USA                  H-1053 Budapest, Hungary

 
                       Version 2.1
 
                     vincent.theory.phys.ucl.ac.uk                     
                     Mon  3 Mar 15:24:35 GMT 2025                      
                     integer*8 version is running
 
********************************************************************************
*                          Input from ZMAT file                                *
********************************************************************************
Carbon Monoxide DBOC calculation                                                
C                                                                               
O 1 r                                                                           
                                                                                
r=1.6758620689655173                                                            
                                                                                
                                                                                
*CFOUR(CALC=CCSD,BASIS=AUG-PCVQZ,SCF_CONV=10                                    
CC_CONV=14,DBOC=ON,MEMORY=500000000                                             
ZFIELD=200)                                                                     
                                                                                
%isotopes                                                                       
12                                                                              
18                                                                              
********************************************************************************
  @GTFLGS-I, Hessian will be transformed to curvilinear coordinates.
    -------------------------------------------------------------------
                    CFOUR Control Parameters 
    -------------------------------------------------------------------
        External           Internal           Value            Units
          Name               Name
    -------------------------------------------------------------------
       ABCDTYPE             IABCDT         STANDARD    [  0]    ***   
       ANHARMONIC           IANHAR         OFF         [  0]    ***   
       ANH_ALGORIT          IANALG         STANDARD    [  0]    ***   
       ANH_DERIVAT          IANDER         SECOND      [  1]    ***   
       ANH_MODE             ANHMOD         VIBRATION   [  0]    ***   
       ANH_STEPSIZ          ICUBST             50000          x 10-6  
       ANH_SYMMETR          IANHSM         ABELIAN     [  0]    ***   
       AO_LADDERS           IAOLAD         SINGLEPASS  [  1]    ***   
       AV_SCF               IAVSCF         OFF         [  0]    ***   
       BASIS                IBASIS         AUG-PCVQZ   [ 52]    ***   
       BOTHVECTORS          BOTHVC         OFF         [  0]    ***   
       BOX_POTENT           IPIAB          OFF         [  0]    ***   
       BREIT                IBREIT         OFF         [  0]    ***   
       BRUCK_CONV           IBRTOL          10D-  4             ***   
       BRUECKNER            IBRKNR         OFF         [  0]    ***   
       BUFFERSIZE           IBUFFS              4096            ***   
       CACHE_RECS           ICHREC             10               ***   
       CALCLEVEL            ICLLVL         CCSD        [ 10]    ***   
       CCORBOPT             ICCORB         OFF         [  0]  x 0.01  
       CC_CONV              ICCCNV          10D- 14             ***   
       CC_EXPORDER          ICCEOR              5               ***   
       CC_EXTRAPOL          ICCEXT         DIIS        [  1]    ***   
       CC_GUESS             ICCGES         MP2         [  0]    ***   
       CC_MAXCYC            ICCCYC            100              cycles 
       CC_PROGRAM           ICCPRO         VCC         [  0]    ***   
       CHARGE               ICHRGE              0               ***   
       CHOLESKY             ICHOLE         OFF         [  0]    ***   
       CIS_CONV             ICISTL              5               ***   
       COMM_SIZE            IPSIZE            ***               ***   
       CONSTANT             ICONST         OLD         [  1]    ***   
       CONTINUUM            ICONTU         NONE        [  0]    ***   
       CONTRACTION          ICNTYP         GENERAL     [  1]    ***   
       COORDINATES          ICOORD         INTERNAL    [  0]    ***   
       CPHF_CONVER          ICPHFT          10D- 16             ***   
       CPHF_MAXCYC          ICPHFC             64              cycles 
       CUBIC                ICUBIC         OFF         [  0]    ***   
       CURVILINEAR          ICURVY         ON          [  1]    ***   
       DBOC                 IDBOC          ON          [  1]    ***   
       DCT                  IDCT           OFF         [  0]    ***   
       DERIV_LEV            IDRLVL         SECOND      [  2]    ***   
       DEVMEM_SIZE          IDVMEM          50000000           MByte  
       DIAG_MRCC            IEOMST          10D-  0             ***   
       DIFF_TYPE            IDIFTY         RELAXED     [  0]    ***   
       DIRECT               IDIRCT         OFF         [  0]    ***   
       DROPMO               IDRPMO      NONE         
       ECP                  IECP           OFF         [  0]    ***   
       EIGENVECTOR          IVEC                1               ***   
       EL_ANHARM            IELANH         OFF         [  0]    ***   
       EOMFOLLOW            IEOMSR         ENERGY      [  0]    ***   
       EOMIP                IEOMIP         OFF         [  0]    ***   
       EOMLEVEL             HBARFM         SAME        [  0]    ***   
       EOM_MRCC             IMRCCE         NEW         [  1]    ***   
       EOM_NONIT            EOMNON         OFF         [  0]    ***   
       EOM_NSING            IEOMSI          10D-  0             ***   
       EOM_NSTATES          IMRCCD         DAVIDSON    [  0]    ***   
       EOM_NTRIP            IEOMTR          10D-  0             ***   
       EOM_ORDER            IEXORD         ENERGY      [  0]    ***   
       EOM_PROPSTA          IEOMST              0               ***   
       ESTATE_CONV          IEXTOL          10D-  5             ***   
       ESTATE_DIAG          IEXDIG         ITERATIVE   [  0]    ***   
       ESTATE_LOCK          IESLOC         ON          [  1]    ***   
       ESTATE_MAXC          IEXMXC             40               ***   
       ESTATE_PROP          IEXPRP         OFF         [  0]    ***   
       EVAL_HESS            IRECAL              0            # of cyc.
       EXCITATION           IEXCIT              0               ***   
       EXCITE               IEXCIT         NONE        [  0]    ***   
       EXTERN_POT           IEXPOT         OFF         [  0]    ***   
       FCGRADNEW            IFCGNW         OFF         [  0]    ***   
       FC_FIELD             IFINFC              0             x 10-6  
       FD_CALTYPE           IFDCAL         GRADONLY    [  0]    ***   
       FD_PROJECT           IFDPRJ         OFF         [  1]    ***   
       FD_STEPSIZE          IDISFD              0            10-4 bohr
       FD_USEGROUP          IFDGRP         FULL        [  0]    ***   
       FILE_RECSIZ          IFLREC              4096           words  
       FINITE_PERT          IFIPER              0             x 10-6  
       FIXGEOM              IFIXGM         OFF         [  0]    ***   
       FOCK                 IFOCK          AO          [  1]    ***   
       FREQ_ALGORI          IVIALG         STANDARD    [  0]    ***   
       FROZEN_CORE          IFROCO         OFF         [  0]    ***   
       GAMMA_ABCD           IGABCD         STORE       [  0]    ***   
       GAMMA_ABCI           IGABCI         STORE       [  0]    ***   
       GENBAS_1             IGNBS1              0               ***   
       GENBAS_2             IGNBS2              0               ***   
       GENBAS_3             IGNBS3              0               ***   
       GENBAS_4             IGNBS4              0               ***   
       GEO_CONV             ICONTL              5              H/bohr 
       GEO_MAXCYC           IOPTCY             50               ***   
       GEO_MAXSTEP          IMXSTP            300            millibohr
       GEO_METHOD           INR            SINGLE_POINT[  5]    ***   
       GIAO                 IGIAO          OFF         [  1]    ***   
       GIMIC                IGIMIC         OFF         [  0]    ***   
       GRID                 IGRID          OFF         [  0]    ***   
       GRID_ALGO            IGALGO         SERIAL      [  0]    ***   
       GUESS                IGUESS         MOREAD      [  0]    ***   
       HBAR                 IHBAR          OFF         [  0]    ***   
       HESS_TYPE            IHESTP         SCF         [  0]    ***   
       HF2_FILE             IHF2Fl         USE         [  1]    ***   
       HFSTABILITY          ISTABL         OFF         [  0]    ***   
       INCORE               INCORE         OFF         [  0]    ***   
       INPUT_MRCC           IMRCC          ON          [  1]    ***   
       INTEGRALS            INTTYP         VMOL        [  1]    ***   
       JODA_PRINT           IJPRNT              0               ***   
       KEYWORD_OUT          IDMPKW         NO          [  0]    ***   
       LINDEP_TOL           ILINDP              8               ***   
       LINEQ_CONV           IZTACN          10D-  7           cycles  
       LINEQ_EXPOR          ILMAXD              5               ***   
       LINEQ_MAXCY          ILMAXC            100               ***   
       LINEQ_TYPE           ILTYPE         DIIS        [  1]    ***   
       LOCK_ORBOCC          ILOCOC         OFF         [  0]    ***   
       MEMORY_SIZE          IMEMSZ         500000000           words  
       MEM_UNIT             IMEMU          INTEGERWORDS[  0]    ***   
       MRCC                 IMRCCC         OFF         [  0]    ***   
       MULTIPLICTY          IMULTP              1               ***   
       NACOUPLING           IVCOUP         OFF         [  0]    ***   
       NEGEVAL              IDIE           ABORT       [  0]    ***   
       NEWNORM              INEWNO         OFF         [  0]    ***   
       NON-HF               INONHF         OFF         [  0]    ***   
       NTOP_TAMP            ITOPT2             15               ***   
       NUC_MODEL            INUCMO         POINT       [  0]    ***   
       OCCUPATION           IOCCU   ESTIMATED BY SCF 
       OPEN-SHELL           IOPEN          SPIN-ORBITAL[  0]    ***   
       OPTVIB               IOPTVB         OFF         [  0]    ***   
       ORBITALS             IORBTP         STANDARD    [  0]    ***   
       PARALLEL             IPARAL         ON          [  1]    ***   
       PARA_INT             IPINTS         ON          [  1]    ***   
       PARA_PRINT           IPPRIN              0               ***   
       PERT_ORB             IPTORB         STANDARD    [  0]    ***   
       POINTS               IGRDFD              0               ***   
       PRINT                IPRNT               0               ***   
       PROPS                IPROPS         OFF         [  0]    ***   
       PROP_INTEGR          IINTYP         INTERNAL    [  0]    ***   
       PSI                  IPSI           OFF         [  0]    ***   
       QC_ALG               IQCALG         FLM         [  0]    ***   
       QC_LINALG            IQCLIN         TRIDIAG     [  2]    ***   
       QC_MAXCYC            IQCMAX          10D-100           cycles  
       QC_MAXSCFCY          IQCMSC          10D- 15           cycles  
       QC_RTRUST            IQCRTR          10D-  0           x 10-3  
       QC_SKIPSCF           IQCSKI         OFF         [  0]    ***   
       QC_START             IQCSTA          10D-  1             ***   
       QRHFGUESS            IQGUES         OFF         [  0]    ***   
       QUARTIC              IQUART         OFF         [  0]    ***   
       RAMAN_INT            IRAMIN         OFF         [  0]    ***   
       RAMAN_ORB            IRAMRE         UNRELAXED   [  0]    ***   
       RDO                  IRDOFM         ON          [  1]    ***   
       REDUCE_REPR          REDREP         Ir          [  0]    ***   
       REFERENCE            IREFNC         RHF         [  0]    ***   
       RELATIVIST           IRELAT         OFF         [  0]    ***   
       RELAX_DENS           IRDENS         ON          [  1]    ***   
       RESET_FLAGS          IRESET         OFF         [  0]    ***   
       RESTART_CC           ICCRES         OFF         [  0]    ***   
       ROT_EVEC             ROTVEC              0               ***   
       SAVE_INTS            ISVINT         OFF         [  0]    ***   
       SCALE_ON             ISTCRT              0               ***   
       SCF_CONV             ISCFCV          10D- 10             ***   
       SCF_DAMPING          IDAMP               0             x 10-3  
       SCF_EXPORDE          IRPPOR              6               ***   
       SCF_EXPSTAR          IRPPLS              8               ***   
       SCF_EXTRAPO          IRPP           ON          [  1]    ***   
       SCF_MAXCYC           ISCFCY            150              cycles 
       SCF_NOSTOP           ISCFST         OFF         [  0]    ***   
       SCF_PRINT            ISCFPR              0               ***   
       SCF_PROG             ISCFPR         SCF         [  0]    ***   
       SD_FIELD             IFINSD              0             x 10-6  
       SOPERT               IPERSO         OFF         [  0]    ***   
       SPHERICAL            IDFGHI         ON          [  1]    ***   
       SPINORBIT            ISOCAL         OFF         [  0]    ***   
       SPINROTATIO          ISRCON         OFF         [  0]    ***   
       SPIN_FLIP            ISPFLP         OFF         [  0]    ***   
       SPIN_ORBIT           ISPORB         OFF         [  0]    ***   
       SPIN_SCAL            ISCSMP         OFF         [  0]    ***   
       STEEPSCALE           ISTPSC              1000          x 10-3  
       SUBGROUP             ISUBGP         DEFAULT     [  0]    ***   
       SUBGRPAXIS           ISBXYZ         X           [  0]    ***   
       SYMMETRY             ISYM           ON          [  0]    ***   
       SYM_CHECK            ISYMCK         OVERRIDE    [  1]    ***   
       T3_EXTRAPOL          IT3EXT         OFF         [  0]    ***   
       T4_EXTRAPOL          IT4EXP         OFF         [  0]    ***   
       TAMP_SUM             IEVERY              5               ***   
       TESTSUITE            ITESTS         OFF         [  0]    ***   
       THERMOCH             ITHERM         OFF         [  0]    ***   
       TOL_CHOLESK          ITOLCH          10D-  4             ***   
       TRANGRAD             IRESRM         OFF         [  0]    ***   
       TRANS_INV            ITRAIN         IGNORE      [  1]    ***   
       TREAT_PERT           ITREAT         SIMULTANEOUS[  0]    ***   
       TRIP_ALGORI          ITRALG         NORMAL      [  0]    ***   
       UIJ_THRESHO          IUIJTH              1               ***   
       UNITS                IUNITS         ANGSTROM    [  0]    ***   
       UNOS                 IUNOS          OFF         [  0]    ***   
       UPDATE_HESS          IHUPDT         ON          [  1]    ***   
       VIBPHASE             ISETPH         STANDARD    [  0]    ***   
       VIBRATION            IVIB           ANALYTIC    [  1]    ***   
       VIB_ALGORIT          IGEALG         STANDARD    [  0]    ***   
       VNATORB              IVNORB         OFF         [  0]    ***   
       VTRAN                IVTRAN         FULL/PARTIAL[  0]    ***   
       XFIELD               IXEFLD              0             x 10-6  
       XFORM_TOL            IXFTOL          10D- 11             ***   
       YFIELD               IYEFLD              0             x 10-6  
       ZFIELD               IZEFLD            200             x 10-6  
       ZSCALE_EXP           IZEXPS         OFF         [  0]    ***   
    -------------------------------------------------------------------
   2 entries found in Z-matrix 
   Job Title : Carbon Monoxide DBOC calculation                                                
   There are  1 unique internal coordinates.
   Of these,  0 will be optimized.
   User supplied Z-matrix: 
--------------------------------------------------------------------------------
       SYMBOL    BOND      LENGTH    ANGLE     ANGLE     DIHED     ANGLE
                  TO      (ANGST)    WRT      (DEG)      WRT      (DEG)
--------------------------------------------------------------------------------
        C    
        O          1         r    
                  *Initial values for internal coordinates* 
                      Name             Value
                        r               1.6758620690
--------------------------------------------------------------------------------
  read isotopes from ZMAT file 
   Rotational constants (in cm-1): 
          0.8336727772             0.8336727772
   Rotational constants (in MHz): 
      24992.8846054315         24992.8846054315
********************************************************************************
   The full molecular point group is CXv .
   The largest Abelian subgroup of the full molecular point group is C2v .
   The computational point group is C2v .
********************************************************************************
--------------------------------------------------------------------------------
   Analysis of internal coordinates specified by Z-matrix 
--------------------------------------------------------------------------------
   *The nuclear repulsion energy is   15.156677432098764 a.u.
   *There is   1 degree of freedom within the tot. symm. molecular subspace.
   *Z-matrix requests optimization of   0 coordinates.
   *The optimization is constrained.
   *The following   1 parameters can have non-zero 
    derivatives within the totally symmetric subspace:
             r    [ 1]
   *The following   0 parameters are to be optimized:

   *The following coordinates must be varied in an  unconstrained optimization.
             r    [ 1]
--------------------------------------------------------------------------------


 ----------------------------------------------------------------
         Coordinates used in calculation (QCOMP) 
 ----------------------------------------------------------------
 Z-matrix   Atomic            Coordinates (in bohr)
  Symbol    Number           X              Y              Z
 ----------------------------------------------------------------
     C         6        -0.00000000     0.00000000     1.90011714
     O         8         0.00000000     0.00000000    -1.26680386
 ----------------------------------------------------------------
 
   Interatomic distance matrix (Angstroms) 
 
                 C             O    
                [ 1]        [ 2]
  C    [ 1]     0.00000
  O    [ 2]     1.67586     0.00000
 rotcon2
   Rotational constants (in cm-1): 
          0.8336727772             0.0000000000
   Rotational constants (in MHz): 
      24992.8846054315             0.0000000000
  ECPDATA file not present.   Using default ECPDATA. 
  @GTFLGS-I, Hessian will be transformed to curvilinear coordinates.
  There are  218 basis functions.
 @CHECKOUT-I, Total execution time (CPU/WALL):        0.17/       0.22 seconds.
--executable xjoda finished with status     0 in        0.25 seconds (walltime).
 --invoking executable--
/nfs/workspaces/public/cfour_mpi/bin/xvmol
 SERIAL VERSION OF MOLECULE STARTED
********************************************************************************
                    INPUT FROM MOL FILE
********************************************************************************
INTGRL        1    0    1    0    0    0    0    0    0                         
         *** CFOUR Program System (Release V0.1) ***                            
Carbon Monoxide DBOC calculation                                                
    2    2 X  Y       0.10E-08              0    0                              
   9999.00      3.00                                                            
          6.00000000    1    5    1    1    1    1    1                         
C #1  -0.000000000000000   0.000000000000000   1.900117140183119                
   16    9                                                                      
   33980.0000000000       9.100000000000000E-005 -1.900000000000000E-005        
  0.000000000000000E+000  0.000000000000000E+000  0.000000000000000E+000        
  0.000000000000000E+000  0.000000000000000E+000  0.000000000000000E+000        
  0.000000000000000E+000                                                        
   5089.00000000000       7.040000000000000E-004 -1.510000000000000E-004        
  0.000000000000000E+000  0.000000000000000E+000  0.000000000000000E+000        
  0.000000000000000E+000  0.000000000000000E+000  0.000000000000000E+000        
  0.000000000000000E+000                                                        
   1157.00000000000       3.693000000000000E-003 -7.850000000000000E-004        
  0.000000000000000E+000  0.000000000000000E+000  0.000000000000000E+000        
  0.000000000000000E+000  0.000000000000000E+000  0.000000000000000E+000        
  0.000000000000000E+000                                                        
   326.600000000000       1.536000000000000E-002 -3.324000000000000E-003        
  0.000000000000000E+000  0.000000000000000E+000  0.000000000000000E+000        
  0.000000000000000E+000  0.000000000000000E+000  0.000000000000000E+000        
  0.000000000000000E+000                                                        
   106.100000000000       5.292900000000000E-002 -1.151200000000000E-002        
  0.000000000000000E+000  0.000000000000000E+000  0.000000000000000E+000        
  0.000000000000000E+000  0.000000000000000E+000  0.000000000000000E+000        
  0.000000000000000E+000                                                        
   38.1100000000000       0.147043000000000      -3.416000000000000E-002        
  0.000000000000000E+000  0.000000000000000E+000  0.000000000000000E+000        
  0.000000000000000E+000  0.000000000000000E+000  0.000000000000000E+000        
  0.000000000000000E+000                                                        
   14.7500000000000       0.305631000000000      -7.717300000000001E-002        
  0.000000000000000E+000  0.000000000000000E+000  0.000000000000000E+000        
  0.000000000000000E+000  0.000000000000000E+000  0.000000000000000E+000        
  0.000000000000000E+000                                                        
   6.03500000000000       0.399345000000000      -0.141493000000000             
  0.000000000000000E+000  0.000000000000000E+000  0.000000000000000E+000        
  0.000000000000000E+000  0.000000000000000E+000  0.000000000000000E+000        
  0.000000000000000E+000                                                        
   2.53000000000000       0.217051000000000      -0.118019000000000             
  0.000000000000000E+000  0.000000000000000E+000  0.000000000000000E+000        
  0.000000000000000E+000  0.000000000000000E+000  0.000000000000000E+000        
  0.000000000000000E+000                                                        
  0.735500000000000       1.589400000000000E-002  0.273806000000000             
   1.00000000000000       0.000000000000000E+000  0.000000000000000E+000        
  0.000000000000000E+000  0.000000000000000E+000  0.000000000000000E+000        
  0.000000000000000E+000                                                        
  0.290500000000000      -3.084000000000000E-003  0.586510000000000             
  0.000000000000000E+000   1.00000000000000       0.000000000000000E+000        
  0.000000000000000E+000  0.000000000000000E+000  0.000000000000000E+000        
  0.000000000000000E+000                                                        
  0.111100000000000       9.779999999999999E-004  0.285430000000000             
  0.000000000000000E+000  0.000000000000000E+000   1.00000000000000             
  0.000000000000000E+000  0.000000000000000E+000  0.000000000000000E+000        
  0.000000000000000E+000                                                        
   7.21600000000000       0.000000000000000E+000  0.000000000000000E+000        
  0.000000000000000E+000  0.000000000000000E+000  0.000000000000000E+000        
   1.00000000000000       0.000000000000000E+000  0.000000000000000E+000        
  0.000000000000000E+000                                                        
   19.5700000000000       0.000000000000000E+000  0.000000000000000E+000        
  0.000000000000000E+000  0.000000000000000E+000  0.000000000000000E+000        
  0.000000000000000E+000   1.00000000000000       0.000000000000000E+000        
  0.000000000000000E+000                                                        
   53.0730000000000       0.000000000000000E+000  0.000000000000000E+000        
  0.000000000000000E+000  0.000000000000000E+000  0.000000000000000E+000        
  0.000000000000000E+000  0.000000000000000E+000   1.00000000000000             
  0.000000000000000E+000                                                        
  4.145000000000000E-002  0.000000000000000E+000  0.000000000000000E+000        
  0.000000000000000E+000  0.000000000000000E+000  0.000000000000000E+000        
  0.000000000000000E+000  0.000000000000000E+000  0.000000000000000E+000        
   1.00000000000000                                                             
   10    8                                                                      
   34.5100000000000       5.378000000000000E-003  0.000000000000000E+000        
  0.000000000000000E+000  0.000000000000000E+000  0.000000000000000E+000        
  0.000000000000000E+000  0.000000000000000E+000  0.000000000000000E+000        
   7.91500000000000       3.613200000000000E-002  0.000000000000000E+000        
  0.000000000000000E+000  0.000000000000000E+000  0.000000000000000E+000        
  0.000000000000000E+000  0.000000000000000E+000  0.000000000000000E+000        
   2.36800000000000       0.142493000000000       0.000000000000000E+000        
  0.000000000000000E+000  0.000000000000000E+000  0.000000000000000E+000        
  0.000000000000000E+000  0.000000000000000E+000  0.000000000000000E+000        
  0.813200000000000       0.342150000000000        1.00000000000000             
  0.000000000000000E+000  0.000000000000000E+000  0.000000000000000E+000        
  0.000000000000000E+000  0.000000000000000E+000  0.000000000000000E+000        
  0.289000000000000       0.463864000000000       0.000000000000000E+000        
   1.00000000000000       0.000000000000000E+000  0.000000000000000E+000        
  0.000000000000000E+000  0.000000000000000E+000  0.000000000000000E+000        
  0.100700000000000       0.250028000000000       0.000000000000000E+000        
  0.000000000000000E+000   1.00000000000000       0.000000000000000E+000        
  0.000000000000000E+000  0.000000000000000E+000  0.000000000000000E+000        
   8.18200000000000       0.000000000000000E+000  0.000000000000000E+000        
  0.000000000000000E+000  0.000000000000000E+000   1.00000000000000             
  0.000000000000000E+000  0.000000000000000E+000  0.000000000000000E+000        
   24.1860000000000       0.000000000000000E+000  0.000000000000000E+000        
  0.000000000000000E+000  0.000000000000000E+000  0.000000000000000E+000        
   1.00000000000000       0.000000000000000E+000  0.000000000000000E+000        
   71.4940000000000       0.000000000000000E+000  0.000000000000000E+000        
  0.000000000000000E+000  0.000000000000000E+000  0.000000000000000E+000        
  0.000000000000000E+000   1.00000000000000       0.000000000000000E+000        
  3.218000000000000E-002  0.000000000000000E+000  0.000000000000000E+000        
  0.000000000000000E+000  0.000000000000000E+000  0.000000000000000E+000        
  0.000000000000000E+000  0.000000000000000E+000   1.00000000000000             
    6    6                                                                      
   1.84800000000000        1.00000000000000       0.000000000000000E+000        
  0.000000000000000E+000  0.000000000000000E+000  0.000000000000000E+000        
  0.000000000000000E+000                                                        
  0.649000000000000       0.000000000000000E+000   1.00000000000000             
  0.000000000000000E+000  0.000000000000000E+000  0.000000000000000E+000        
  0.000000000000000E+000                                                        
  0.228000000000000       0.000000000000000E+000  0.000000000000000E+000        
   1.00000000000000       0.000000000000000E+000  0.000000000000000E+000        
  0.000000000000000E+000                                                        
   8.65600000000000       0.000000000000000E+000  0.000000000000000E+000        
  0.000000000000000E+000   1.00000000000000       0.000000000000000E+000        
  0.000000000000000E+000                                                        
   33.2130000000000       0.000000000000000E+000  0.000000000000000E+000        
  0.000000000000000E+000  0.000000000000000E+000   1.00000000000000             
  0.000000000000000E+000                                                        
  7.660000000000000E-002  0.000000000000000E+000  0.000000000000000E+000        
  0.000000000000000E+000  0.000000000000000E+000  0.000000000000000E+000        
   1.00000000000000                                                             
    4    4                                                                      
   1.41900000000000        1.00000000000000       0.000000000000000E+000        
  0.000000000000000E+000  0.000000000000000E+000                                
  0.485000000000000       0.000000000000000E+000   1.00000000000000             
  0.000000000000000E+000  0.000000000000000E+000                                
   24.6940000000000       0.000000000000000E+000  0.000000000000000E+000        
   1.00000000000000       0.000000000000000E+000                                
  0.187000000000000       0.000000000000000E+000  0.000000000000000E+000        
  0.000000000000000E+000   1.00000000000000                                     
    2    2                                                                      
   1.01100000000000        1.00000000000000       0.000000000000000E+000        
  0.424000000000000       0.000000000000000E+000   1.00000000000000             
          8.00000000    1    5    1    1    1    1    1                         
O #2   0.000000000000000   0.000000000000000  -1.266803856521986                
   16    9                                                                      
   61420.0000000000       9.000000000000001E-005 -2.000000000000000E-005        
  0.000000000000000E+000  0.000000000000000E+000  0.000000000000000E+000        
  0.000000000000000E+000  0.000000000000000E+000  0.000000000000000E+000        
  0.000000000000000E+000                                                        
   9199.00000000000       6.980000000000001E-004 -1.590000000000000E-004        
  0.000000000000000E+000  0.000000000000000E+000  0.000000000000000E+000        
  0.000000000000000E+000  0.000000000000000E+000  0.000000000000000E+000        
  0.000000000000000E+000                                                        
   2091.00000000000       3.664000000000000E-003 -8.290000000000000E-004        
  0.000000000000000E+000  0.000000000000000E+000  0.000000000000000E+000        
  0.000000000000000E+000  0.000000000000000E+000  0.000000000000000E+000        
  0.000000000000000E+000                                                        
   590.900000000000       1.521800000000000E-002 -3.508000000000000E-003        
  0.000000000000000E+000  0.000000000000000E+000  0.000000000000000E+000        
  0.000000000000000E+000  0.000000000000000E+000  0.000000000000000E+000        
  0.000000000000000E+000                                                        
   192.300000000000       5.242300000000000E-002 -1.215600000000000E-002        
  0.000000000000000E+000  0.000000000000000E+000  0.000000000000000E+000        
  0.000000000000000E+000  0.000000000000000E+000  0.000000000000000E+000        
  0.000000000000000E+000                                                        
   69.3200000000000       0.145921000000000      -3.626100000000000E-002        
  0.000000000000000E+000  0.000000000000000E+000  0.000000000000000E+000        
  0.000000000000000E+000  0.000000000000000E+000  0.000000000000000E+000        
  0.000000000000000E+000                                                        
   26.9700000000000       0.305258000000000      -8.299200000000000E-002        
  0.000000000000000E+000  0.000000000000000E+000  0.000000000000000E+000        
  0.000000000000000E+000  0.000000000000000E+000  0.000000000000000E+000        
  0.000000000000000E+000                                                        
   11.1000000000000       0.398508000000000      -0.152090000000000             
  0.000000000000000E+000  0.000000000000000E+000  0.000000000000000E+000        
  0.000000000000000E+000  0.000000000000000E+000  0.000000000000000E+000        
  0.000000000000000E+000                                                        
   4.68200000000000       0.216980000000000      -0.115331000000000             
  0.000000000000000E+000  0.000000000000000E+000  0.000000000000000E+000        
  0.000000000000000E+000  0.000000000000000E+000  0.000000000000000E+000        
  0.000000000000000E+000                                                        
   1.42800000000000       1.759400000000000E-002  0.288979000000000             
   1.00000000000000       0.000000000000000E+000  0.000000000000000E+000        
  0.000000000000000E+000  0.000000000000000E+000  0.000000000000000E+000        
  0.000000000000000E+000                                                        
  0.554700000000000      -2.502000000000000E-003  0.586128000000000             
  0.000000000000000E+000   1.00000000000000       0.000000000000000E+000        
  0.000000000000000E+000  0.000000000000000E+000  0.000000000000000E+000        
  0.000000000000000E+000                                                        
  0.206700000000000       9.540000000000000E-004  0.277624000000000             
  0.000000000000000E+000  0.000000000000000E+000   1.00000000000000             
  0.000000000000000E+000  0.000000000000000E+000  0.000000000000000E+000        
  0.000000000000000E+000                                                        
   12.9740000000000       0.000000000000000E+000  0.000000000000000E+000        
  0.000000000000000E+000  0.000000000000000E+000  0.000000000000000E+000        
   1.00000000000000       0.000000000000000E+000  0.000000000000000E+000        
  0.000000000000000E+000                                                        
   34.9000000000000       0.000000000000000E+000  0.000000000000000E+000        
  0.000000000000000E+000  0.000000000000000E+000  0.000000000000000E+000        
  0.000000000000000E+000   1.00000000000000       0.000000000000000E+000        
  0.000000000000000E+000                                                        
   93.8810000000000       0.000000000000000E+000  0.000000000000000E+000        
  0.000000000000000E+000  0.000000000000000E+000  0.000000000000000E+000        
  0.000000000000000E+000  0.000000000000000E+000   1.00000000000000             
  0.000000000000000E+000                                                        
  6.959000000000000E-002  0.000000000000000E+000  0.000000000000000E+000        
  0.000000000000000E+000  0.000000000000000E+000  0.000000000000000E+000        
  0.000000000000000E+000  0.000000000000000E+000  0.000000000000000E+000        
   1.00000000000000                                                             
   10    8                                                                      
   63.4200000000000       6.044000000000000E-003  0.000000000000000E+000        
  0.000000000000000E+000  0.000000000000000E+000  0.000000000000000E+000        
  0.000000000000000E+000  0.000000000000000E+000  0.000000000000000E+000        
   14.6600000000000       4.179900000000000E-002  0.000000000000000E+000        
  0.000000000000000E+000  0.000000000000000E+000  0.000000000000000E+000        
  0.000000000000000E+000  0.000000000000000E+000  0.000000000000000E+000        
   4.45900000000000       0.161143000000000       0.000000000000000E+000        
  0.000000000000000E+000  0.000000000000000E+000  0.000000000000000E+000        
  0.000000000000000E+000  0.000000000000000E+000  0.000000000000000E+000        
   1.53100000000000       0.356731000000000        1.00000000000000             
  0.000000000000000E+000  0.000000000000000E+000  0.000000000000000E+000        
  0.000000000000000E+000  0.000000000000000E+000  0.000000000000000E+000        
  0.530200000000000       0.448309000000000       0.000000000000000E+000        
   1.00000000000000       0.000000000000000E+000  0.000000000000000E+000        
  0.000000000000000E+000  0.000000000000000E+000  0.000000000000000E+000        
  0.175000000000000       0.244940000000000       0.000000000000000E+000        
  0.000000000000000E+000   1.00000000000000       0.000000000000000E+000        
  0.000000000000000E+000  0.000000000000000E+000  0.000000000000000E+000        
   14.4750000000000       0.000000000000000E+000  0.000000000000000E+000        
  0.000000000000000E+000  0.000000000000000E+000   1.00000000000000             
  0.000000000000000E+000  0.000000000000000E+000  0.000000000000000E+000        
   42.7300000000000       0.000000000000000E+000  0.000000000000000E+000        
  0.000000000000000E+000  0.000000000000000E+000  0.000000000000000E+000        
   1.00000000000000       0.000000000000000E+000  0.000000000000000E+000        
   126.140000000000       0.000000000000000E+000  0.000000000000000E+000        
  0.000000000000000E+000  0.000000000000000E+000  0.000000000000000E+000        
  0.000000000000000E+000   1.00000000000000       0.000000000000000E+000        
  5.348000000000000E-002  0.000000000000000E+000  0.000000000000000E+000        
  0.000000000000000E+000  0.000000000000000E+000  0.000000000000000E+000        
  0.000000000000000E+000  0.000000000000000E+000   1.00000000000000             
    6    6                                                                      
   3.77500000000000        1.00000000000000       0.000000000000000E+000        
  0.000000000000000E+000  0.000000000000000E+000  0.000000000000000E+000        
  0.000000000000000E+000                                                        
   1.30000000000000       0.000000000000000E+000   1.00000000000000             
  0.000000000000000E+000  0.000000000000000E+000  0.000000000000000E+000        
  0.000000000000000E+000                                                        
  0.444000000000000       0.000000000000000E+000  0.000000000000000E+000        
   1.00000000000000       0.000000000000000E+000  0.000000000000000E+000        
  0.000000000000000E+000                                                        
   14.9270000000000       0.000000000000000E+000  0.000000000000000E+000        
  0.000000000000000E+000   1.00000000000000       0.000000000000000E+000        
  0.000000000000000E+000                                                        
   57.5440000000000       0.000000000000000E+000  0.000000000000000E+000        
  0.000000000000000E+000  0.000000000000000E+000   1.00000000000000             
  0.000000000000000E+000                                                        
  0.154000000000000       0.000000000000000E+000  0.000000000000000E+000        
  0.000000000000000E+000  0.000000000000000E+000  0.000000000000000E+000        
   1.00000000000000                                                             
    4    4                                                                      
   2.66600000000000        1.00000000000000       0.000000000000000E+000        
  0.000000000000000E+000  0.000000000000000E+000                                
  0.859000000000000       0.000000000000000E+000   1.00000000000000             
  0.000000000000000E+000  0.000000000000000E+000                                
   26.4830000000000       0.000000000000000E+000  0.000000000000000E+000        
   1.00000000000000       0.000000000000000E+000                                
  0.324000000000000       0.000000000000000E+000  0.000000000000000E+000        
  0.000000000000000E+000   1.00000000000000                                     
    2    2                                                                      
   1.84600000000000        1.00000000000000       0.000000000000000E+000        
  0.714000000000000       0.000000000000000E+000   1.00000000000000             
FINISH                                                                          
 
********************************************************************************
 ONE- AND TWO-ELECTRON INTEGRALS OVER SYMMETRY-ADAPTED AOS ARE CALCULATED.

  SPHERICAL HARMONICS ARE USED.
  
  INTEGRALS LESS THAN  0.10E-13 ARE NEGLECTED.

  NUCLEAR REPULSION ENERGY :   15.1566774321 A.U.
  @MOLECU-I, ONE ELECTRON INTEGRALS (CPU/WALL):        0.06/       0.07 SECONDS.
  @TWOEL-I,    4401505 INTEGRALS OF SYMMETRY TYPE  I I I I
  @TWOEL-I,   18996055 INTEGRALS OF SYMMETRY TYPE  I J I J
  @TWOEL-I,   10002073 INTEGRALS OF SYMMETRY TYPE  I I J J
  @TWOEL-I,   14031888 INTEGRALS OF SYMMETRY TYPE  I J K L
  @TWOEL-I, TOTAL NUMBER OF 2-E INTEGRALS   47431521.
  @MOLECU-I, TWO ELECTRON INTEGRALS (CPU/WALL):      227.93/      29.42 SECONDS.
 @CHECKOUT-I, Total execution time (CPU/WALL):      228.01/      29.51 seconds.

Running with 14 threads/proc

--executable xvmol finished with status     0 in       29.56 seconds (walltime).
 --invoking executable--
/nfs/workspaces/public/cfour_mpi/bin/xvmol2ja
 @GETMEM-I,  Allocated    3814 MB of main memory.
 @CHECKOUT-I, Total execution time (CPU/WALL):        0.17/       0.06 seconds.
--executable xvmol2ja finished with status     0 in        0.12 seconds (walltime).
 --invoking executable--
/nfs/workspaces/public/cfour_mpi/bin/xvprop
 @GETMEM-I,  Allocated    3814 MB of main memory.
   Property integrals will be calculated.
    --------------------------------------------------------------
                                   Property evaluated at 
    Property type                X             Y             Z
    --------------------------------------------------------------
    Dipole moment               ----          ----          ----  
    Quadrupole moment           ----          ----          ----  
    Octopole moment             ----          ----          ----  
    Relativisitic corr.         ----          ----          ----  
    Second moment            0.0000000     0.0000000     0.0000000
    Electron density         0.0000000     0.0000000     1.9001171
    Electron density         0.0000000     0.0000000    -1.2668039
    Field gradient           0.0000000     0.0000000     1.9001171
    Field gradient           0.0000000     0.0000000    -1.2668039
    Potential                0.0000000     0.0000000     1.9001171
    Potential                0.0000000     0.0000000    -1.2668039
    --------------------------------------------------------------
 @CHECKOUT-I, Total execution time (CPU/WALL):        1.36/       1.40 seconds.
--executable xvprop finished with status     0 in        1.43 seconds (walltime).
 --invoking executable--
/nfs/workspaces/public/cfour_mpi/bin/xvscf
  There are  218 functions in the AO basis.

  There are 4 irreducible representations.

       Irrep        # of functions
         1                 86
         2                 52
         3                 52
         4                 28


  Parameters for SCF calculation: 
        SCF reference function:  RHF  
  Maximum number of iterations:  150
     Full symmetry point group: CXv 
     Computational point group: C2v 
        Initial density matrix: MOREAD                 
     SCF convergence tolerance: 10**(-10)
  DIIS convergence acceleration:  ON
          Latest start for DIIS:   8
                     DIIS order:   6

  Memory information:    2523578 words required.
  Fock matrices are constructed from AO integral file.
 @GETMEM-I,  Allocated      19 MB of main memory.
  Initialization and symmetry analysis required      0.001 seconds.

  Adding electric field perturbation to one-electron Hamiltonian.
  Field direction     : Z
  Field strength      :  0.0002000 a.u.

  @INITGES-I, Occupancies from core Hamiltonian:

          Alpha population by irrep:   5    1    1    0
           Beta population by irrep:   5    1    1    0


 total no. of electrons in initial guess :  0.000000000000000E+000
  --------------------------------------------------------------------
  Iteration         Total Energy            Largest Density Difference
  --------------------------------------------------------------------
       0            15.156424177701622              0.0000000000D+00
   current occupation vector 
     5  1  1  0
     5  1  1  0
       1           -93.681849450247284              0.1755908839D+02
   current occupation vector 
     5  1  1  0
     5  1  1  0
       2           -97.807201667395987              0.1755907825D+02
   current occupation vector 
     5  1  1  0
     5  1  1  0
       3          -100.045626743380865              0.6885230755D+01
   current occupation vector 
     5  1  1  0
     5  1  1  0
       4           -94.705803359104564              0.6882672083D+01
   current occupation vector 
     5  1  1  0
     5  1  1  0
       5          -100.030220373390151              0.7033968715D+01
   current occupation vector 
     5  1  1  0
     5  1  1  0
       6           -94.577448356287164              0.7034148663D+01
   current occupation vector 
     5  1  1  0
     5  1  1  0
       7          -100.025461736414243              0.7041386441D+01
   current occupation vector 
     5  1  1  0
     5  1  1  0
       8           -94.573979025769816              0.7041395610D+01
   current occupation vector 
     5  1  1  0
     5  1  1  0
       9          -107.271353918603168              0.5999052443D+01
   current occupation vector 
     5  1  1  0
     5  1  1  0
      10          -110.606949719473178              0.1315282384D+01
   current occupation vector 
     5  1  1  0
     5  1  1  0
      11          -112.330739073958597              0.1022147166D+01
   current occupation vector 
     5  1  1  0
     5  1  1  0
      12          -112.451037083482888              0.5403700358D+00
   current occupation vector 
     5  1  1  0
     5  1  1  0
      13          -112.480811788650854              0.1321176373D+00
   current occupation vector 
     5  1  1  0
     5  1  1  0
      14          -112.489532720130583              0.9857198349D-01
   current occupation vector 
     5  1  1  0
     5  1  1  0
      15          -112.490267154287210              0.3313870957D-01
   current occupation vector 
     5  1  1  0
     5  1  1  0
      16          -112.491008595859299              0.5333202219D-01
   current occupation vector 
     5  1  1  0
     5  1  1  0
      17          -112.491362327860983              0.4274005749D-01
   current occupation vector 
     5  1  1  0
     5  1  1  0
      18          -112.491441028273940              0.2679206059D-01
   current occupation vector 
     5  1  1  0
     5  1  1  0
      19          -112.491441776537670              0.2146676212D-02
   current occupation vector 
     5  1  1  0
     5  1  1  0
      20          -112.491441787030595              0.2714195850D-03
   current occupation vector 
     5  1  1  0
     5  1  1  0
      21          -112.491441787353423              0.2342607336D-04
   current occupation vector 
     5  1  1  0
     5  1  1  0
      22          -112.491441787376530              0.1846452198D-04
   current occupation vector 
     5  1  1  0
     5  1  1  0
      23          -112.491441787376885              0.8309107384D-06
   current occupation vector 
     5  1  1  0
     5  1  1  0
      24          -112.491441787376331              0.1739253652D-06
   current occupation vector 
     5  1  1  0
     5  1  1  0
      25          -112.491441787377141              0.5334483277D-07
   current occupation vector 
     5  1  1  0
     5  1  1  0
      26          -112.491441787376658              0.8160466303D-08
   current occupation vector 
     5  1  1  0
     5  1  1  0
      27          -112.491441787376473              0.4918467633D-08
   current occupation vector 
     5  1  1  0
     5  1  1  0
      28          -112.491441787375990              0.2339227700D-08
   current occupation vector 
     5  1  1  0
     5  1  1  0
      29          -112.491441787376715              0.5054698882D-09
   current occupation vector 
     5  1  1  0
     5  1  1  0
      30          -112.491441787377255              0.2547573263D-09
   current occupation vector 
     5  1  1  0
     5  1  1  0

  SCF has converged.

 Density matrix saved to file den.dat
 total electron number:   14.0000000000001     
     E(SCF)=      -112.491441787376857              0.2494315865D-10

  Eigenvector printing suppressed.

 @PUTMOS-I, Writing converged MOs to NEWMOS. 
 @PUTMOS-I, Symmetry   1 Full Blocks 21 Partial Blocksize   2
 @PUTMOS-I, Symmetry   2 Full Blocks 13 Partial Blocksize   0
 @PUTMOS-I, Symmetry   3 Full Blocks 13 Partial Blocksize   0
 @PUTMOS-I, Symmetry   4 Full Blocks  7 Partial Blocksize   0
 @PUTFOCK-I, Writing converged Fock matrix to NEWFOCK. 
 @PUTFOCK-I, Symmetry   1 Full Blocks 21 Partial Blocksize   2
 @PUTFOCK-I, Symmetry   2 Full Blocks 13 Partial Blocksize   0
 @PUTFOCK-I, Symmetry   3 Full Blocks 13 Partial Blocksize   0
 @PUTFOCK-I, Symmetry   4 Full Blocks  7 Partial Blocksize   0


 
  ORBITAL EIGENVALUES (ALPHA)  (1H = 27.2113834 eV)

       MO #        E(hartree)               E(eV)           FULLSYM    COMPSYM
       ----   --------------------   --------------------   -------   ---------
    1     1         -20.6363642614        -561.5440198997     SG+        A1 (1)
    2     2         -11.5333749741        -313.8390883176     SG+        A1 (1)
    3     3          -1.2520683137         -34.0705109274     SG+        A1 (1)
    4     4          -0.8103751072         -22.0514277390     SG+        A1 (1)
    5     5          -0.5126465851         -13.9498227763     SG+        A1 (1)
    6    87          -0.4857179788         -13.2170581461      PI        B1 (2)
    7   139          -0.4857179788         -13.2170581461      PI        B2 (3)
  +++++++++++++++++++++++++++++++++++++++++++++++++++++++++++++++++++++++++++++
    8   140          -0.0182577869          -0.4968196398      PI        B2 (3)
    9    88          -0.0182577869          -0.4968196398      PI        B1 (2)
   10     6           0.0589706412           1.6046727267     SG+        A1 (1)
   11     7           0.0686927503           1.8692247660     SG+        A1 (1)
   12    89           0.0813723222           2.2142534584      PI        B1 (2)
   13   141           0.0813723222           2.2142534584      PI        B2 (3)
   14     8           0.1559459992           4.2435063752     SG+        A1 (1)
   15     9           0.1783743146           4.8538118626     SG+        A1 (1)
   16    90           0.1817356570           4.9452786404      PI        B1 (2)
   17   142           0.1817356570           4.9452786404      PI        B2 (3)
   18   191           0.2208157139           6.0087010504      DE        A2 (4)
   19    10           0.2208157139           6.0087010504      DE        A1 (1)
   20    91           0.2820769295           7.6757034764      PI        B1 (2)
   21   143           0.2820769295           7.6757034764      PI        B2 (3)
   22    11           0.2950242501           8.0280179817     SG+        A1 (1)
   23    12           0.3039720111           8.2714989365     SG+        A1 (1)
   24    92           0.4078239958          11.0974551106      PI        B1 (2)
   25   144           0.4078239958          11.0974551106      PI        B2 (3)
   26    13           0.4123746861          11.2212856891     SG+        A1 (1)
   27    14           0.5147016195          14.0057431039     SG+        A1 (1)
   28   192           0.5505288020          14.9806503036      DE        A2 (4)
   29    15           0.5505288020          14.9806503036      DE        A1 (1)
   30    93           0.6231428264          16.9565783626      PI        B1 (2)
   31   145           0.6231428264          16.9565783626      PI        B2 (3)
   32    16           0.6996976906          19.0397421221     SG+        A1 (1)
   33    94           0.7278583612          19.8060329268      PH        B1 (2)
   34   146           0.7278583612          19.8060329268      PH        B2 (3)
   35   193           0.7340263477          19.9738723733      DE        A2 (4)
   36    17           0.7340263477          19.9738723733      DE        A1 (1)
   37    95           0.7710413701          20.9811023379      PI        B1 (2)
   38   147           0.7710413701          20.9811023379      PI        B2 (3)
   39    18           0.8122107000          22.1013767583     SG+        A1 (1)
   40    19           0.8523626896          23.1939679415      DE        A1 (1)
   41   194           0.8523626896          23.1939679415      DE        A2 (4)
   42    96           0.8723475604          23.7377839239      PI        B1 (2)
   43   148           0.8723475604          23.7377839239      PI        B2 (3)
   44    20           0.8975218540          24.4228112793     SG+        A1 (1)
   45    97           1.0495262274          28.5590605633      PI        B1 (2)
   46   149           1.0495262274          28.5590605634      PI        B2 (3)
   47    21           1.1429865964          31.1022464953     SG+        A1 (1)
   48    22           1.3395324597          36.4505313385     SG+        A1 (1)
   49   150           1.4191546287          38.6171607054      PH        B2 (3)
   50    98           1.4191546287          38.6171607054      PH        B1 (2)
   51    99           1.4650471724          39.8659603078      PI        B1 (2)
   52   151           1.4650471724          39.8659603078      PI        B2 (3)
   53    23           1.5797093790          42.9860775735     SG+        A1 (1)
   54   195           1.5880357024          43.2126483520      DE        A2 (4)
   55    24           1.5880357024          43.2126483520      DE        A1 (1)
   56   100           1.6403541386          44.6363053766      PI        B1 (2)
   57   152           1.6403541386          44.6363053766      PI        B2 (3)
   58   196           1.6641469660          45.2837411258      DE        A2 (4)
   59    25           1.6641469660          45.2837411258      DE        A1 (1)
   60    26           1.9039739362          51.8097647617     SG+        A1 (1)
   61    27           1.9219482426          52.2988705046     SG+        A1 (1)
   62   101           2.0412494175          55.5452205147      PI        B1 (2)
   63   153           2.0412494175          55.5452205147      PI        B2 (3)
   64   197           2.0605343389          56.0699899038      PI        A2 (4)
   65    28           2.0605343389          56.0699899038      PI        A1 (1)
   66   198           2.1174979444          57.6200484133      DE        A2 (4)
   67    29           2.1174979444          57.6200484133      DE        A1 (1)
   68   154           2.1804055766          59.3318521110      PH        B2 (3)
   69   102           2.1804055766          59.3318521110      PH        B1 (2)
   70   103           2.2005746895          59.8806815767      PH        B1 (2)
   71   155           2.2005746895          59.8806815767      PH        B2 (3)
   72   104           2.2080877718          60.0851229400      PI        B1 (2)
   73   156           2.2080877718          60.0851229400      PI        B2 (3)
   74    30           2.2164639687          60.3130508445     SG+        A1 (1)
   75    31           2.2726838662          61.8428720295      DE        A1 (1)
   76   199           2.2726838662          61.8428720295      DE        A2 (4)
   77    32           2.3674584838          64.4218204872     SG+        A1 (1)
   78   105           2.4826703259          67.5568940945      PI        B1 (2)
   79   157           2.4826703259          67.5568940945      PI        B2 (3)
   80   200           2.5831863332          70.2920737052      DE        A2 (4)
   81    33           2.5831863332          70.2920737052      DE        A1 (1)
   82   106           2.6192658759          71.2738479747      PI        B1 (2)
   83   158           2.6192658759          71.2738479747      PI        B2 (3)
   84    34           2.6585204018          72.3420179296     SG+        A1 (1)
   85    35           2.8251927106          76.8774020266     SG+        A1 (1)
   86   107           3.3046348620          89.9236862282      PI        B1 (2)
   87   159           3.3046348620          89.9236862282      PI        B2 (3)
   88    36           3.7166813034         101.1360399227      PI        A1 (1)
   89   201           3.7166813034         101.1360399227      PI        A2 (4)
   90    37           3.8431206994         104.5766308041     SG+        A1 (1)
   91   160           3.8785124093         105.5396881905      PH        B2 (3)
   92   108           3.8785124093         105.5396881905      PH        B1 (2)
   93    38           4.0705522995         110.7653592701     SG+        A1 (1)
   94   161           4.1471121338         112.8486582747      PH        B2 (3)
   95   109           4.1471121338         112.8486582747      PH        B1 (2)
   96   110           4.1476144441         112.8623268325      PI        B1 (2)
   97   162           4.1476144441         112.8623268325      PI        B2 (3)
   98   202           4.1507597375         112.9479146181      DE        A2 (4)
   99    39           4.1507597375         112.9479146182      DE        A1 (1)
  100   203           4.3067430772         117.1924370803      DE        A2 (4)
  101    40           4.3067430772         117.1924370803      DE        A1 (1)
  102    41           4.3407988301         118.1191412287     SG+        A1 (1)
  103   111           4.4859314339         122.0684001544      PI        B1 (2)
  104   163           4.4859314339         122.0684001544      PI        B2 (3)
  105   204           4.6020698341         125.2286866888      DE        A2 (4)
  106    42           4.6020698341         125.2286866888      DE        A1 (1)
  107    43           4.8649826818         132.3829089880     SG+        A1 (1)
  108   164           5.0637812583         137.7924932721      PI        B2 (3)
  109   112           5.0637812583         137.7924932721      PI        B1 (2)
  110    44           5.0938823513         138.6115856561     SG+        A1 (1)
  111   113           5.3552134676         145.7227668564      PI        B1 (2)
  112   165           5.3552134676         145.7227668565      PI        B2 (3)
  113   205           5.8136940314         158.1986572596      PI        A2 (4)
  114    45           5.8136940314         158.1986572596      PI        A1 (1)
  115   166           5.8842245628         160.1178905902      PH        B2 (3)
  116   114           5.8842245628         160.1178905902      PH        B1 (2)
  117    46           5.9760219192         162.6158236515     SG+        A1 (1)
  118   206           6.0526701585         164.7015282762      DE        A2 (4)
  119    47           6.0526701585         164.7015282762      DE        A1 (1)
  120   115           6.1055815414         166.1413202036      PI        B1 (2)
  121   167           6.1055815414         166.1413202036      PI        B2 (3)
  122    48           6.1515824760         167.3930692724     SG+        A1 (1)
  123   207           6.2582963499         170.2969014090      DE        A2 (4)
  124    49           6.2582963499         170.2969014090      DE        A1 (1)
  125   168           6.3381350251         172.4694222097      PH        B2 (3)
  126   116           6.3381350251         172.4694222097      PH        B1 (2)
  127   208           6.4691902625         176.0356165197      DE        A2 (4)
  128    50           6.4691902625         176.0356165197      DE        A1 (1)
  129   117           6.7175697277         182.7943653757      PI        B1 (2)
  130   169           6.7175697277         182.7943653757      PI        B2 (3)
  131   170           7.0611595943         192.1439209679      PI        B2 (3)
  132   118           7.0611595943         192.1439209679      PI        B1 (2)
  133    51           7.0631297004         192.1975302804     SG+        A1 (1)
  134    52           7.5428622970         205.2517178962     SG+        A1 (1)
  135    53           9.3882829281         255.4681662254     SG+        A1 (1)
  136   119           9.6328930438         262.1243458650      PI        B1 (2)
  137   171           9.6328930438         262.1243458653      PI        B2 (3)
  138    54          10.6690132272         290.3186094245     SG+        A1 (1)
  139    55          10.6719273041         290.3979054901      PI        A1 (1)
  140   209          10.6719273041         290.3979054901      PI        A2 (4)
  141   172          10.7283415448         291.9330150208      PH        B2 (3)
  142   120          10.7283415448         291.9330150209      PH        B1 (2)
  143   210          10.9350884259         297.5588836700      DE        A2 (4)
  144    56          10.9350884259         297.5588836700      DE        A1 (1)
  145   121          10.9892740183         299.0333485983      PI        B1 (2)
  146   173          10.9892740183         299.0333485983      PI        B2 (3)
  147    57          11.1306630740         302.8807404024     SG+        A1 (1)
  148   174          11.9073623430         324.0158019971      PH        B2 (3)
  149   122          11.9073623430         324.0158019971      PH        B1 (2)
  150   211          11.9775577695         325.9259166606      DE        A2 (4)
  151    58          11.9775577695         325.9259166610      DE        A1 (1)
  152   123          12.2326434503         332.8671509216      PI        B1 (2)
  153   175          12.2326434503         332.8671509216      PI        B2 (3)
  154    59          12.5045283669         340.2655156278     SG+        A1 (1)
  155   212          12.7239234566         346.2355595303      DE        A2 (4)
  156    60          12.7239234566         346.2355595303      DE        A1 (1)
  157   176          13.1033876003         356.5613038294      PI        B2 (3)
  158   124          13.1033876003         356.5613038294      PI        B1 (2)
  159    61          13.3614074300         363.5823803407     SG+        A1 (1)
  160    62          17.2377453534         469.0628977630     SG+        A1 (1)
  161   177          18.6748329538         508.1680394356      PI        B2 (3)
  162   125          18.6748329538         508.1680394357      PI        B1 (2)
  163    63          19.4512896868         529.2965012923     SG+        A1 (1)
  164   213          26.2372498490         713.9518650014      DE        A2 (4)
  165    64          26.2372498490         713.9518650014      DE        A1 (1)
  166   126          26.4743457579         720.4035726831      PI        B1 (2)
  167   178          26.4743457579         720.4035726831      PI        B2 (3)
  168    65          26.9051060617         732.1251564613     SG+        A1 (1)
  169   127          33.3577532889         907.7106141082      PI        B1 (2)
  170   179          33.3577532890         907.7106141093      PI        B2 (3)
  171    66          34.2205347174         931.1880903470     SG+        A1 (1)
  172    67          35.5087859071         966.2431873879     SG+        A1 (1)
  173    68          47.0787531089        1281.0780008390      DE        A1 (1)
  174   214          47.0787531089        1281.0780008391      DE        A2 (4)
  175   128          47.2635577757        1286.1067914817      PI        B1 (2)
  176   180          47.2635577757        1286.1067914817      PI        B2 (3)
  177    69          47.4179574364        1290.3082198454     SG+        A1 (1)
  178    70          63.6747786484        1732.6788147124     SG+        A1 (1)
  179   181          66.2675815496        1803.2325685373      PI        B2 (3)
  180   129          66.2675815496        1803.2325685374      PI        B1 (2)
  181    71          66.8467386750        1818.9922351248     SG+        A1 (1)
  182   182          98.4944201534        2680.1694295536      PH        B2 (3)
  183   130          98.4944201534        2680.1694295536      PH        B1 (2)
  184    72          98.5089906424        2680.5659127179      DE        A1 (1)
  185   215          98.5089906424        2680.5659127179      DE        A2 (4)
  186   131          98.5224057693        2680.9309568798      PI        B1 (2)
  187   183          98.5224057693        2680.9309568798      PI        B2 (3)
  188    73          98.5299931793        2681.1374208024     SG+        A1 (1)
  189   216         103.3184090803        2811.4368417609      DE        A2 (4)
  190    74         103.3184090803        2811.4368417623      DE        A1 (1)
  191   184         103.3255437542        2811.6309861096      PH        B2 (3)
  192   132         103.3255437542        2811.6309861096      PH        B1 (2)
  193   185         103.3327774891        2811.8278260416      PI        B2 (3)
  194   133         103.3327774891        2811.8278260416      PI        B1 (2)
  195    75         103.3440198095        2812.1337451345     SG+        A1 (1)
  196   217         114.9440728050        3127.7872346545      DE        A2 (4)
  197    76         114.9440728050        3127.7872346546      DE        A1 (1)
  198   186         115.0599936455        3130.9416010884      PI        B2 (3)
  199   134         115.0599936455        3130.9416010884      PI        B1 (2)
  200    77         115.2439371751        3135.9469589972     SG+        A1 (1)
  201   135         116.6744984985        3174.8745116445      PI        B1 (2)
  202   187         116.6744984985        3174.8745116455      PI        B2 (3)
  203    78         117.3907365876        3194.3643408940     SG+        A1 (1)
  204    79         121.7839748571        3313.9104318130     SG+        A1 (1)
  205    80         198.5628641777        5403.1702261424      DE        A1 (1)
  206   218         198.5628641777        5403.1702261425      DE        A2 (4)
  207   136         198.6635201934        5405.9092155763      PI        B1 (2)
  208   188         198.6635201934        5405.9092155764      PI        B2 (3)
  209    81         198.7441267914        5408.1026326194     SG+        A1 (1)
  210    82         216.2041548315        5883.2141497922     SG+        A1 (1)
  211   189         224.7550241187        6115.8951323690      PI        B2 (3)
  212   137         224.7550241187        6115.8951323691      PI        B1 (2)
  213    83         225.2129237700        6128.3552153410     SG+        A1 (1)
  214   138         395.2212190448       10754.5161192430      PI        B1 (2)
  215   190         395.2212190448       10754.5161192439      PI        B2 (3)
  216    84         395.7682961263       10769.4028434582     SG+        A1 (1)
  217    85         508.5356157229       13837.9576119906     SG+        A1 (1)
  218    86         895.0152155509       24354.6021791879     SG+        A1 (1)


  VSCF finished.

 @CHECKOUT-I, Total execution time (CPU/WALL):       56.60/      11.62 seconds.
--executable xvscf finished with status     0 in       11.65 seconds (walltime).
 --invoking executable--
/nfs/workspaces/public/cfour_mpi/bin/xvtran
 @GETMEM-I,  Allocated    3814 MB of main memory.
  Full RHF integral transformation
  Transformation of IIII integrals :
  1 pass through the AO integral file was required.
     4401505 AO integrals were read.
     8557703 MO integrals were written to HF2.
  Transformation of IIJJ integrals :
  1 pass through the AO integral file was required.
    10002073 AO integrals were read.
    14354824 MO integrals were written to HF2.
  Transformation of IJIJ integrals :
  1 pass through the AO integral file was required.
    18996055 AO integrals were read.
    26739875 MO integrals were written to HF2.
  Transformation of IJKL integrals :
  1 pass through the AO integral file was required.
    14031888 AO integrals were read.
    18131591 MO integrals were written to HF2.
  Summary of active molecular orbitals: 
------------------------------------------------------------------------
 
  Index      Eigenvalue    Symmetry    Index      Eigenvalue    Symmetry
------------------------------------------------------------------------
     1       -20.6363643        1       110         4.1471121        2
     2       -11.5333750        1       111         4.1476144        2
     3        -1.2520683        1       112         4.4859314        2
     4        -0.8103751        1       113         5.0637813        2
     5        -0.5126466        1       114         5.3552135        2
     6        -0.4857180        2       115         5.8842246        2
     7        -0.4857180        3       116         6.1055815        2
     8         0.0589706        1       117         6.3381350        2
     9         0.0686928        1       118         6.7175697        2
    10         0.1559460        1       119         7.0611596        2
    11         0.1783743        1       120         9.6328930        2
    12         0.2208157        1       121        10.7283415        2
    13         0.2950243        1       122        10.9892740        2
    14         0.3039720        1       123        11.9073623        2
    15         0.4123747        1       124        12.2326435        2
    16         0.5147016        1       125        13.1033876        2
    17         0.5505288        1       126        18.6748330        2
    18         0.6996977        1       127        26.4743458        2
    19         0.7340263        1       128        33.3577533        2
    20         0.8122107        1       129        47.2635578        2
    21         0.8523627        1       130        66.2675815        2
    22         0.8975219        1       131        98.4944202        2
    23         1.1429866        1       132        98.5224058        2
    24         1.3395325        1       133       103.3255438        2
    25         1.5797094        1       134       103.3327775        2
    26         1.5880357        1       135       115.0599936        2
    27         1.6641470        1       136       116.6744985        2
    28         1.9039739        1       137       198.6635202        2
    29         1.9219482        1       138       224.7550241        2
    30         2.0605343        1       139       395.2212190        2
    31         2.1174979        1       140        -0.0182578        3
    32         2.2164640        1       141         0.0813723        3
    33         2.2726839        1       142         0.1817357        3
    34         2.3674585        1       143         0.2820769        3
    35         2.5831863        1       144         0.4078240        3
    36         2.6585204        1       145         0.6231428        3
    37         2.8251927        1       146         0.7278584        3
    38         3.7166813        1       147         0.7710414        3
    39         3.8431207        1       148         0.8723476        3
    40         4.0705523        1       149         1.0495262        3
    41         4.1507597        1       150         1.4191546        3
    42         4.3067431        1       151         1.4650472        3
    43         4.3407988        1       152         1.6403541        3
    44         4.6020698        1       153         2.0412494        3
    45         4.8649827        1       154         2.1804056        3
    46         5.0938824        1       155         2.2005747        3
    47         5.8136940        1       156         2.2080878        3
    48         5.9760219        1       157         2.4826703        3
    49         6.0526702        1       158         2.6192659        3
    50         6.1515825        1       159         3.3046349        3
    51         6.2582963        1       160         3.8785124        3
    52         6.4691903        1       161         4.1471121        3
    53         7.0631297        1       162         4.1476144        3
    54         7.5428623        1       163         4.4859314        3
    55         9.3882829        1       164         5.0637813        3
    56        10.6690132        1       165         5.3552135        3
    57        10.6719273        1       166         5.8842246        3
    58        10.9350884        1       167         6.1055815        3
    59        11.1306631        1       168         6.3381350        3
    60        11.9775578        1       169         6.7175697        3
    61        12.5045284        1       170         7.0611596        3
    62        12.7239235        1       171         9.6328930        3
    63        13.3614074        1       172        10.7283415        3
    64        17.2377454        1       173        10.9892740        3
    65        19.4512897        1       174        11.9073623        3
    66        26.2372498        1       175        12.2326435        3
    67        26.9051061        1       176        13.1033876        3
    68        34.2205347        1       177        18.6748330        3
    69        35.5087859        1       178        26.4743458        3
    70        47.0787531        1       179        33.3577533        3
    71        47.4179574        1       180        47.2635578        3
    72        63.6747786        1       181        66.2675815        3
    73        66.8467387        1       182        98.4944202        3
    74        98.5089906        1       183        98.5224058        3
    75        98.5299932        1       184       103.3255438        3
    76       103.3184091        1       185       103.3327775        3
    77       103.3440198        1       186       115.0599936        3
    78       114.9440728        1       187       116.6744985        3
    79       115.2439372        1       188       198.6635202        3
    80       117.3907366        1       189       224.7550241        3
    81       121.7839749        1       190       395.2212190        3
    82       198.5628642        1       191         0.2208157        4
    83       198.7441268        1       192         0.5505288        4
    84       216.2041548        1       193         0.7340263        4
    85       225.2129238        1       194         0.8523627        4
    86       395.7682961        1       195         1.5880357        4
    87       508.5356157        1       196         1.6641470        4
    88       895.0152156        1       197         2.0605343        4
    89        -0.0182578        2       198         2.1174979        4
    90         0.0813723        2       199         2.2726839        4
    91         0.1817357        2       200         2.5831863        4
    92         0.2820769        2       201         3.7166813        4
    93         0.4078240        2       202         4.1507597        4
    94         0.6231428        2       203         4.3067431        4
    95         0.7278584        2       204         4.6020698        4
    96         0.7710414        2       205         5.8136940        4
    97         0.8723476        2       206         6.0526702        4
    98         1.0495262        2       207         6.2582963        4
    99         1.4191546        2       208         6.4691903        4
   100         1.4650472        2       209        10.6719273        4
   101         1.6403541        2       210        10.9350884        4
   102         2.0412494        2       211        11.9775578        4
   103         2.1804056        2       212        12.7239235        4
   104         2.2005747        2       213        26.2372498        4
   105         2.2080878        2       214        47.0787531        4
   106         2.4826703        2       215        98.5089906        4
   107         2.6192659        2       216       103.3184091        4
   108         3.3046349        2       217       114.9440728        4
   109         3.8785124        2       218       198.5628642        4
------------------------------------------------------------------------
  -20.6363642614235       -11.5333749741498       -1.25206831371232     
 -0.810375107170825      -0.512646585116877      -0.485717978825210     
 -0.485717978825206       5.897064118941519E-002  6.869275033017121E-002
  0.155945999248246       0.178374314575190       0.220815713851432     
  0.295024250097456       0.303972011084441       0.412374686143846     
  0.514701619465448       0.550528801988055       0.699697690566805     
  0.734026347711074       0.812210699964053       0.852362689562660     
  0.897521854008144        1.14298659638686        1.33953245973304     
   1.57970937903551        1.58803570243968        1.66414696600246     
   1.90397393620609        1.92194824260880        2.06053433886781     
   2.11749794438237        2.21646396869800        2.27268386617579     
   2.36745848383606        2.58318633315912        2.65852040178313     
   2.82519271058452        3.71668130341084        3.84312069940948     
   4.07055229945069        4.15075973749147        4.30674307724788     
   4.34079883012101        4.60206983408230        4.86498268176828     
   5.09388235131491        5.81369403143104        5.97602191924870     
[...]
 Convergence information after    17 iterations: 
 Largest element of residual vector :  0.76569944E-06.
 Largest element of DIIS residual   :  0.32525404E-06.
 Convergence information after    18 iterations: 
 Largest element of residual vector :  0.12450110E-06.
 Largest element of DIIS residual   : -0.10389976E-06.
 Convergence information after    19 iterations: 
 Largest element of residual vector :  0.13040199E-06.
 Largest element of DIIS residual   : -0.44185384E-07.
 Perturbed amplitude equations converged in    19 iterations.
  Dominant contributions to perturbed wavefunction:
    7    7  140   22  -0.2214825149 ABAB
    7    7   22  140  -0.2214825149 ABAB
    7    7  140   45  -0.2145954144 ABAB
    7    7   45  140  -0.2145954144 ABAB
    7    0   36    0   0.2089302709 AA  
    7    0   22    0   0.1926325529 AA  
    7    0   28    0   0.1850991558 AA  
    7    7  140   32  -0.1778840252 ABAB
    7    7   32  140  -0.1778840252 ABAB
    7    7  140   28  -0.1758976360 ABAB
    7    7   28  140  -0.1758976360 ABAB
    7    0   45    0   0.1736456283 AA  
    7    0   46    0  -0.1723169445 AA  
    7    7  140   39  -0.1705182823 ABAB
    7    7   39  140  -0.1705182823 ABAB
    7    0   39    0   0.1623185641 AA  
    7    0   25    0  -0.1533430843 AA  
    7    7  140   56  -0.1532609587 ABAB
    7    7   56  140  -0.1532609587 ABAB
    7    7  140   36  -0.1499717439 ABAB
  norm of converged amps    1.59453777627199     
 Starting iterative solution of the perturbed Lambda equations.
 The DIIS procedure is used to accelerate convergence.
 Convergence criterion is 10**(-7).
 Maximum number of iterations is 100.
 Convergence information after     1 iterations: 
 Largest element of residual vector :  0.77993753E-01.
 Largest element of DIIS residual   :  0.77993753E-01.
 Convergence information after     2 iterations: 
 Largest element of residual vector : -0.17556833E-01.
 Largest element of DIIS residual   :  0.14118895E-01.
 Convergence information after     3 iterations: 
 Largest element of residual vector :  0.63459466E-02.
 Largest element of DIIS residual   :  0.60947893E-02.
 Convergence information after     4 iterations: 
 Largest element of residual vector :  0.34277792E-02.
 Largest element of DIIS residual   :  0.31949694E-02.
 Convergence information after     5 iterations: 
 Largest element of residual vector :  0.32400901E-02.
 Largest element of DIIS residual   :  0.27832883E-02.
 Convergence information after     6 iterations: 
 Largest element of residual vector :  0.18528462E-02.
 Largest element of DIIS residual   :  0.85057047E-03.
 Convergence information after     7 iterations: 
 Largest element of residual vector :  0.92410550E-03.
 Largest element of DIIS residual   :  0.46317882E-03.
 Convergence information after     8 iterations: 
 Largest element of residual vector :  0.34842442E-03.
 Largest element of DIIS residual   : -0.20422894E-03.
 Convergence information after     9 iterations: 
 Largest element of residual vector :  0.15447244E-03.
 Largest element of DIIS residual   : -0.10039857E-03.
 Convergence information after    10 iterations: 
 Largest element of residual vector : -0.89482978E-04.
 Largest element of DIIS residual   : -0.55676811E-04.
 Convergence information after    11 iterations: 
 Largest element of residual vector : -0.29714244E-04.
 Largest element of DIIS residual   : -0.93974057E-05.
 Convergence information after    12 iterations: 
 Largest element of residual vector :  0.13287546E-04.
 Largest element of DIIS residual   :  0.74918212E-05.
 Convergence information after    13 iterations: 
 Largest element of residual vector :  0.35406951E-05.
 Largest element of DIIS residual   :  0.30291478E-05.
 Convergence information after    14 iterations: 
 Largest element of residual vector :  0.37907221E-05.
 Largest element of DIIS residual   :  0.21389677E-05.
 Convergence information after    15 iterations: 
 Largest element of residual vector :  0.20899124E-05.
 Largest element of DIIS residual   :  0.99631653E-06.
 Convergence information after    16 iterations: 
 Largest element of residual vector :  0.90512556E-06.
 Largest element of DIIS residual   :  0.26644031E-06.
 Convergence information after    17 iterations: 
 Largest element of residual vector :  0.43225464E-06.
 Largest element of DIIS residual   :  0.18780140E-06.
 Convergence information after    18 iterations: 
 Largest element of residual vector :  0.79469529E-07.
 Largest element of DIIS residual   : -0.56428919E-07.
 Perturbed Lambda equations converged in    18 iterations.
  Dominant contributions to perturbed wavefunction:
    7    7  140   22  -0.1687718809 ABAB
    7    7   22  140  -0.1687718809 ABAB
    7    7  140   45  -0.1654257469 ABAB
    7    7   45  140  -0.1654257469 ABAB
    7    7  140   32  -0.1363836968 ABAB
    7    7   32  140  -0.1363836968 ABAB
    7    7  140   28  -0.1314044526 ABAB
    7    7   28  140  -0.1314044526 ABAB
    7    7  140   39  -0.1290285495 ABAB
    7    7   39  140  -0.1290285495 ABAB
    7    7  140   56  -0.1163911904 ABAB
    7    7   56  140  -0.1163911904 ABAB
    7    7  140   36  -0.1076712563 ABAB
    7    7   36  140  -0.1076712563 ABAB
    7    6   22   89  -0.1044186200 ABAB
    6    7   89   22  -0.1044186200 ABAB
    7    7  140   16   0.1038026968 ABAB
    7    7   16  140   0.1038026968 ABAB
    7    6   45   89  -0.1030249790 ABAB
    6    7   89   45  -0.1030249790 ABAB
        The DBOC first-order density matrix is being calculated 
             (Symmetry block 3, perturbation   2)
 term   2.63502708461233     
 final tnorm  0.745759707946991     
  norm contr. I: |<0|L dT/dx|0>|^2   0.000000000000000E+000
  norm contr. II: <0|[nabla(1+L)e-T][nabla e^T]|0>   2.63502708461233     
  total norm contribution   2.63502708461233     
 oo  9.738650645718591E-003
 vv  -17.5020297104946     
 vo  3.325625758289805E-002
  Correlated perturbed 1-el contribution to DBOC  -17.4590348022660       cm**-1
  SUM_I |dc_I/dx|^2 contribution to DBOC   8.81521634503205       cm**-1
 
 
  The total diagonal Born-Oppenheimer correction (DBOC) is:      0.0038696950 a.u.
  The total diagonal Born-Oppenheimer correction (DBOC) is:        849.299878 cm-1
 
 Total CC energy including DBOC  -113.041933206149     
 First-order density matrix is being calculated  (Symmetry block 3, perturbation   2)
 Calculation of the contributions of <pq||rs> to dI(i,j)/dx required   2.8 seconds.
 Calculation of the contributions of <pq||rs> to dI(a,b)/dx required  15.0 seconds.
 Calculation of the contributions of <pq||rs> to dI(i,a)/dx required   9.2 seconds.
 First-order Z-vector equations are solved for 1 perturbation.
 Convergence reached after  20 iterations.
        U*G(pq,rs) contribution is being calculated
             (Symmetry block 3, perturbation   2)

 CCSD contribution to force constants 

        0.0000000000        0.0000000000        0.0000000000
        0.0000000000        0.0000000000        0.0000000000
        0.0000000000        0.0000000000        0.0000000000
        0.0000000000        0.0000000000        0.0000000000
        0.0000000000        0.0000000000        0.0000000000
        0.0000000000        0.0000000000        0.0000000000
        0.0000000000        0.0000000000        0.0000000000
        0.0000000000        0.0000000000        0.0000000000
        0.0000000000        0.0000000000        0.0000000000
        0.0000000000        0.0000000000        0.0000000000
        0.0000000000        0.0000000000        0.0000000000
        0.0000000000       -7.2818664485        7.2818664485

 CCSD contribution to dipole derivatives 

        0.0000000000        0.0000000000        0.0000000000
        0.0000000000        0.0000000000        0.0000000000
        0.0000000000        0.0000000000        0.0000000000
        0.0000000000        0.0000000000       -0.0571089876
        0.0000000000        0.0000000000        0.0000000000
        0.0000000000        0.0000000000        0.0000000000
 @CHECKOUT-I, Total execution time (CPU/WALL):     1218.90/     459.78 seconds.
--executable xsdcc finished with status     0 in      459.97 seconds (walltime).
 --invoking executable--
/nfs/workspaces/public/cfour_mpi/bin/xanti
 @GETMEM-I,  Allocated    3814 MB of main memory.
 CCSD MO derivative gammas will be sorted to Mulliken order.
 @CHECKOUT-I, Total execution time (CPU/WALL):       13.15/      30.28 seconds.
--executable xanti finished with status     0 in       30.43 seconds (walltime).
 --invoking executable--
/nfs/workspaces/public/cfour_mpi/bin/xbcktrn
 @GETMEM-I,  Allocated    3814 MB of main memory.
 CCSD MO derivative gammas will be transformed to the AO basis.
 @CHECKOUT-I, Total execution time (CPU/WALL):       19.85/       5.38 seconds.
--executable xbcktrn finished with status     0 in        5.45 seconds (walltime).
 --invoking executable--
/nfs/workspaces/public/cfour_mpi/bin/xvdint
 @GETMEM-I,  Allocated    3814 MB of main memory.
 One- and two-electron integral derivatives are calculated
 for RHF-CC/MBPT hessians and dipole derivatives.
 Spherical gaussians are used.
  magnet F F
                    8722  records have been written to the Sort file.
  Total length of Sort file :             178609116  words.
 Evaluation of 2el integral derivatives

                      Two-electron integral gradient
                      ------------------------------

                         C #1 z     0.0000000000
                         O #2 z     0.0000000000


 C #1       0.0000000000            0.0815576206            0.0000000000
 O #2       0.0000000000           -0.0815576206            0.0000000000


 Evaluation of 2e integral derivatives required  276.34 seconds.
  contribution to Hessian
        0.0000000000        0.0000000000        0.0000000000
        0.0000000000        0.0815576206       -0.0815576206
 @CHECKOUT-I, Total execution time (CPU/WALL):      276.21/      60.93 seconds.
--executable xvdint finished with status     0 in       61.19 seconds (walltime).
 --invoking executable--
/nfs/workspaces/public/cfour_mpi/bin/xanti
 @GETMEM-I,  Allocated    3814 MB of main memory.
 CCSD MO gammas will be sorted to Mulliken order.
 @CHECKOUT-I, Total execution time (CPU/WALL):       17.44/      51.97 seconds.
--executable xanti finished with status     0 in       52.09 seconds (walltime).
 --invoking executable--
/nfs/workspaces/public/cfour_mpi/bin/xbcktrn
 @GETMEM-I,  Allocated    3814 MB of main memory.
 CCSD MO gammas will be transformed to the AO basis.
 @CHECKOUT-I, Total execution time (CPU/WALL):       25.68/       7.51 seconds.
--executable xbcktrn finished with status     0 in        7.55 seconds (walltime).
 --invoking executable--
/nfs/workspaces/public/cfour_mpi/bin/xvdint
 @GETMEM-I,  Allocated    3814 MB of main memory.
 One- and two-electron integral derivatives are calculated
 for RHF-CC/MBPT hessians and dipole derivatives.
 Spherical gaussians are used.
  magnet F F

                     Kinetic energy integral gradient
                     --------------------------------

                         C #1 z    -0.4497029403
                         O #2 z     0.4497029403


 C #1       0.0000000000            0.0000000000           -0.4497029403
 O #2       0.0000000000            0.0000000000            0.4497029403



                   Nuclear attraction integral gradient
                   ------------------------------------

                         C #1 z    12.5901880071
                         O #2 z   -12.5901880071


 C #1       0.0000000000            0.0000000000           12.5901880071
 O #2       0.0000000000            0.0000000000          -12.5901880071



                      Reorthonormalization gradient
                      -----------------------------

                         C #1 z     0.0000000000
                         O #2 z     0.0000000000


 C #1       0.0000000000            0.0000000000            0.0000000000
 O #2       0.0000000000            0.0000000000            0.0000000000



                     Kinetic energy integral Hessian
                     -------------------------------


           Symmetry 1

           C #1 z      O #2 z

 C #1 z    0.475470
 O #2 z   -0.475470    0.475470


           Symmetry 2

           C #1 x      O #2 x

 C #1 x   -0.317792
 O #2 x    0.317792   -0.317792


           Symmetry 3

           C #1 y      O #2 y

 C #1 y   -0.317792
 O #2 y    0.317792   -0.317792




           C #1 x      C #1 y      C #1 z      O #2 x      O #2 y      O #2 z

 C #1 x   -0.317792
 C #1 y    0.000000   -0.317792
 C #1 z    0.000000    0.000000    0.475470

 O #2 x    0.317792    0.000000    0.000000   -0.317792
 O #2 y    0.000000    0.317792    0.000000    0.000000   -0.317792
 O #2 z    0.000000    0.000000   -0.475470    0.000000    0.000000    0.475470




                   Nuclear attraction integral Hessian
                   -----------------------------------


           Symmetry 1

           C #1 z      O #2 z

 C #1 z   -7.535811
 O #2 z    7.535811   -7.535811


           Symmetry 2

           C #1 x      O #2 x

 C #1 x    6.268124
 O #2 x   -6.268124    6.268124


           Symmetry 3

           C #1 y      O #2 y

 C #1 y    6.268124
 O #2 y   -6.268124    6.268124




           C #1 x      C #1 y      C #1 z      O #2 x      O #2 y      O #2 z

 C #1 x    6.268124
 C #1 y    0.000000    6.268124
 C #1 z    0.000000    0.000000   -7.535811

 O #2 x   -6.268124    0.000000    0.000000    6.268124
 O #2 y    0.000000   -6.268124    0.000000    0.000000    6.268124
 O #2 z    0.000000    0.000000    7.535811    0.000000    0.000000   -7.535811




                Highest order reorthonormalization Hessian
                ------------------------------------------


           Symmetry 1

           C #1 z      O #2 z

 C #1 z    0.000000
 O #2 z    0.000000    0.000000


           Symmetry 2

           C #1 x      O #2 x

 C #1 x    0.000000
 O #2 x    0.000000    0.000000


           Symmetry 3

           C #1 y      O #2 y

 C #1 y    0.000000
 O #2 y    0.000000    0.000000




           C #1 x      C #1 y      C #1 z      O #2 x      O #2 y      O #2 z




                Electronic contributions to dipole moment
                -----------------------------------------

                               au             Debye

                    z     -0.71664259     -1.82152408

  Conversion factor used: 1 a.u. =   2.54174691 Debye 



   Electronic contributions to static part of dipole moment derivatives
   --------------------------------------------------------------------


                     Total dipole moment derivatives
                     -------------------------------


           Symmetry 1
                              Ez

               C #1 z    -5.63039871
               O #2 z    -8.36960129

           Symmetry 2
                              Ex

               C #1 x    -5.68055982
               O #2 x    -8.31944018

           Symmetry 3
                              Ey

               C #1 y    -5.68055982
               O #2 y    -8.31944018



                       Ex          Ey          Ez

      C #1    x   -5.680560    0.000000    0.000000
      C #1    y    0.000000   -5.680560    0.000000
      C #1    z    0.000000    0.000000   -5.630399

      O #2    x   -8.319440    0.000000    0.000000
      O #2    y    0.000000   -8.319440    0.000000
      O #2    z    0.000000    0.000000   -8.369601

 Evaluation of 1e integral derivatives required    1.74 seconds.
                    8815  records have been written to the Sort file.
  Total length of Sort file :             180513570  words.
 Evaluation of 2el integral derivatives

                      Two-electron integral gradient
                      ------------------------------

                         C #1 z    -6.8116875080
                         O #2 z     6.8116875080


 C #1       0.0000000000            0.0000000000           -6.8116875080
 O #2       0.0000000000            0.0000000000            6.8116875080


 Evaluation of 2e integral derivatives required  630.32 seconds.

                            Molecular gradient
                            ------------------

                         C #1 z     0.5428627509
                         O #2 z    -0.5428627509


 C #1       0.0000000000            0.0000000000            0.5428627509
 O #2       0.0000000000            0.0000000000           -0.5428627509


  Molecular gradient norm 0.768E+00

                            Molecular hessian
                            -----------------


           Symmetry 1

           C #1 z      O #2 z

 C #1 z   11.122412
 O #2 z  -11.122412   11.122412


           Symmetry 2

           C #1 x      O #2 x

 C #1 x    7.437534
 O #2 x   -7.437534    7.437534


           Symmetry 3

           C #1 y      O #2 y

 C #1 y    7.437534
 O #2 y   -7.437534    7.437534




           C #1 x      C #1 y      C #1 z      O #2 x      O #2 y      O #2 z

 C #1 x    7.437534
 C #1 y    0.000000    7.437534
 C #1 z    0.000000    0.000000   11.122412

 O #2 x   -7.437534    0.000000    0.000000    7.437534
 O #2 y    0.000000   -7.437534    0.000000    0.000000    7.437534
 O #2 z    0.000000    0.000000  -11.122412    0.000000    0.000000   11.122412




                           Total dipole moment
                           -------------------

                               au             Debye

                    z      0.54962940      1.39701884

  Conversion factor used: 1 a.u. =   2.54174691 Debye 



                     Total dipole moment derivatives
                     -------------------------------


           Symmetry 1
                              Ez

               C #1 z     0.52865350
               O #2 z    -0.52865350

           Symmetry 2
                              Ex

               C #1 x     0.18341417
               O #2 x    -0.18341417

           Symmetry 3
                              Ey

               C #1 y     0.18341417
               O #2 y    -0.18341417



                       Ex          Ey          Ez

      C #1    x    0.183414    0.000000    0.000000
      C #1    y    0.000000    0.183414    0.000000
      C #1    z    0.000000    0.000000    0.528654

      O #2    x   -0.183414    0.000000    0.000000
      O #2    y    0.000000   -0.183414    0.000000
      O #2    z    0.000000    0.000000   -0.528654

 @CHECKOUT-I, Total execution time (CPU/WALL):      632.05/     108.16 seconds.
--executable xvdint finished with status     0 in      108.33 seconds (walltime).
 --invoking executable--
/nfs/workspaces/public/cfour_mpi/bin/xjoda
  @GTFLGS-I, Hessian will be transformed to curvilinear coordinates.
  @GTFLGS-I, Hessian will be transformed to curvilinear coordinates.
  igrd and ihes are                      0                     1
  gradient from JOBARC 
   0.000000000000000   0.000000000000000   0.542862750935123
   0.000000000000000   0.000000000000000  -0.542862750935123
 
  @PROJFCM-I, Projecting force constant matrix onto totally symmetric subspace.
  Largest difference between matrix elements of symmetrized
  and unsymmetrized FCM :     0.6483702464E-13.
  read isotopes from ZMAT file 
 
  Summary of diagonal Born-Oppenheimer correction at the correlated level
  The total diagonal Born-Oppenheimer correction (DBOC) is:      0.0038696950 a.u.
  The total diagonal Born-Oppenheimer correction (DBOC) is:        849.299878 cm-1
  The total diagonal Born-Oppenheimer correction (DBOC) is:            10.160 kJ/mole
  hellooooooo 
  readis is  F
 
 @CHECKOUT-I, Total execution time (CPU/WALL):        0.03/       0.09 seconds.
--executable xjoda finished with status     0 in        0.19 seconds (walltime).
  The final electronic energy is      -113.041933206149437 a.u. 
  This computation required                         4079.87 seconds (walltime).
