 --invoking executable--
/nfs/workspaces/public/cfour_mpi/bin/xjoda


   *************************************************************************
         <<<     CCCCCC     CCCCCC   |||     CCCCCC     CCCCCC   >>>
       <<<      CCC        CCC       |||    CCC        CCC         >>>
      <<<      CCC        CCC        |||   CCC        CCC            >>>
    <<<        CCC        CCC        |||   CCC        CCC              >>>
      <<<      CCC        CCC        |||   CCC        CCC            >>>
       <<<      CCC        CCC       |||    CCC        CCC         >>>
         <<<     CCCCCC     CCCCCC   |||     CCCCCC     CCCCCC   >>>
   *************************************************************************

     ****************************************************************
     * CFOUR Coupled-Cluster techniques for Computational Chemistry *
     ****************************************************************
 

   Department of Chemistry                Institut fuer Physikalische Chemie
   University of Florida                  Universitaet Mainz
   Gainesville, FL 32611, USA             D-55099 Mainz, Germany

   Department of Chemistry                Fakultaet fuer Chemie und Biowiss.
   Johns Hopkins University               Karlsruher Institut fuer Technologie
   Baltimore, MD 21218, USA               D-76131 Karlsruhe, Germany

   Department of Chemistry                Department of Physical Chemistry
   Southern Methodist University          Eotvos Lorand University
   Dallas, TX 75275, USA                  H-1053 Budapest, Hungary

 
                       Version 2.1
 
                     vincent.theory.phys.ucl.ac.uk                     
                     Mon  3 Mar 21:23:30 GMT 2025                      
                     integer*8 version is running
 
********************************************************************************
*                          Input from ZMAT file                                *
********************************************************************************
Carbon Monoxide DBOC calculation                                                
C                                                                               
O 1 r                                                                           
                                                                                
r=1.7379310344827585                                                            
                                                                                
                                                                                
*CFOUR(CALC=CCSD,BASIS=AUG-PCVQZ,SCF_CONV=10                                    
CC_CONV=14,DBOC=ON,MEMORY=500000000                                             
ZFIELD=-200)                                                                    
                                                                                
%isotopes                                                                       
12                                                                              
18                                                                              
********************************************************************************
  @GTFLGS-I, Hessian will be transformed to curvilinear coordinates.
    -------------------------------------------------------------------
                    CFOUR Control Parameters 
    -------------------------------------------------------------------
        External           Internal           Value            Units
          Name               Name
    -------------------------------------------------------------------
       ABCDTYPE             IABCDT         STANDARD    [  0]    ***   
       ANHARMONIC           IANHAR         OFF         [  0]    ***   
       ANH_ALGORIT          IANALG         STANDARD    [  0]    ***   
       ANH_DERIVAT          IANDER         SECOND      [  1]    ***   
       ANH_MODE             ANHMOD         VIBRATION   [  0]    ***   
       ANH_STEPSIZ          ICUBST             50000          x 10-6  
       ANH_SYMMETR          IANHSM         ABELIAN     [  0]    ***   
       AO_LADDERS           IAOLAD         SINGLEPASS  [  1]    ***   
       AV_SCF               IAVSCF         OFF         [  0]    ***   
       BASIS                IBASIS         AUG-PCVQZ   [ 52]    ***   
       BOTHVECTORS          BOTHVC         OFF         [  0]    ***   
       BOX_POTENT           IPIAB          OFF         [  0]    ***   
       BREIT                IBREIT         OFF         [  0]    ***   
       BRUCK_CONV           IBRTOL          10D-  4             ***   
       BRUECKNER            IBRKNR         OFF         [  0]    ***   
       BUFFERSIZE           IBUFFS              4096            ***   
       CACHE_RECS           ICHREC             10               ***   
       CALCLEVEL            ICLLVL         CCSD        [ 10]    ***   
       CCORBOPT             ICCORB         OFF         [  0]  x 0.01  
       CC_CONV              ICCCNV          10D- 14             ***   
       CC_EXPORDER          ICCEOR              5               ***   
       CC_EXTRAPOL          ICCEXT         DIIS        [  1]    ***   
       CC_GUESS             ICCGES         MP2         [  0]    ***   
       CC_MAXCYC            ICCCYC            100              cycles 
       CC_PROGRAM           ICCPRO         VCC         [  0]    ***   
       CHARGE               ICHRGE              0               ***   
       CHOLESKY             ICHOLE         OFF         [  0]    ***   
       CIS_CONV             ICISTL              5               ***   
       COMM_SIZE            IPSIZE            ***               ***   
       CONSTANT             ICONST         OLD         [  1]    ***   
       CONTINUUM            ICONTU         NONE        [  0]    ***   
       CONTRACTION          ICNTYP         GENERAL     [  1]    ***   
       COORDINATES          ICOORD         INTERNAL    [  0]    ***   
       CPHF_CONVER          ICPHFT          10D- 16             ***   
       CPHF_MAXCYC          ICPHFC             64              cycles 
       CUBIC                ICUBIC         OFF         [  0]    ***   
       CURVILINEAR          ICURVY         ON          [  1]    ***   
       DBOC                 IDBOC          ON          [  1]    ***   
       DCT                  IDCT           OFF         [  0]    ***   
       DERIV_LEV            IDRLVL         SECOND      [  2]    ***   
       DEVMEM_SIZE          IDVMEM          50000000           MByte  
       DIAG_MRCC            IEOMST          10D-  0             ***   
       DIFF_TYPE            IDIFTY         RELAXED     [  0]    ***   
       DIRECT               IDIRCT         OFF         [  0]    ***   
       DROPMO               IDRPMO      NONE         
       ECP                  IECP           OFF         [  0]    ***   
       EIGENVECTOR          IVEC                1               ***   
       EL_ANHARM            IELANH         OFF         [  0]    ***   
       EOMFOLLOW            IEOMSR         ENERGY      [  0]    ***   
       EOMIP                IEOMIP         OFF         [  0]    ***   
       EOMLEVEL             HBARFM         SAME        [  0]    ***   
       EOM_MRCC             IMRCCE         NEW         [  1]    ***   
       EOM_NONIT            EOMNON         OFF         [  0]    ***   
       EOM_NSING            IEOMSI          10D-  0             ***   
       EOM_NSTATES          IMRCCD         DAVIDSON    [  0]    ***   
       EOM_NTRIP            IEOMTR          10D-  0             ***   
       EOM_ORDER            IEXORD         ENERGY      [  0]    ***   
       EOM_PROPSTA          IEOMST              0               ***   
       ESTATE_CONV          IEXTOL          10D-  5             ***   
       ESTATE_DIAG          IEXDIG         ITERATIVE   [  0]    ***   
       ESTATE_LOCK          IESLOC         ON          [  1]    ***   
       ESTATE_MAXC          IEXMXC             40               ***   
       ESTATE_PROP          IEXPRP         OFF         [  0]    ***   
       EVAL_HESS            IRECAL              0            # of cyc.
       EXCITATION           IEXCIT              0               ***   
       EXCITE               IEXCIT         NONE        [  0]    ***   
       EXTERN_POT           IEXPOT         OFF         [  0]    ***   
       FCGRADNEW            IFCGNW         OFF         [  0]    ***   
       FC_FIELD             IFINFC              0             x 10-6  
       FD_CALTYPE           IFDCAL         GRADONLY    [  0]    ***   
       FD_PROJECT           IFDPRJ         OFF         [  1]    ***   
       FD_STEPSIZE          IDISFD              0            10-4 bohr
       FD_USEGROUP          IFDGRP         FULL        [  0]    ***   
       FILE_RECSIZ          IFLREC              4096           words  
       FINITE_PERT          IFIPER              0             x 10-6  
       FIXGEOM              IFIXGM         OFF         [  0]    ***   
       FOCK                 IFOCK          AO          [  1]    ***   
       FREQ_ALGORI          IVIALG         STANDARD    [  0]    ***   
       FROZEN_CORE          IFROCO         OFF         [  0]    ***   
       GAMMA_ABCD           IGABCD         STORE       [  0]    ***   
       GAMMA_ABCI           IGABCI         STORE       [  0]    ***   
       GENBAS_1             IGNBS1              0               ***   
       GENBAS_2             IGNBS2              0               ***   
       GENBAS_3             IGNBS3              0               ***   
       GENBAS_4             IGNBS4              0               ***   
       GEO_CONV             ICONTL              5              H/bohr 
       GEO_MAXCYC           IOPTCY             50               ***   
       GEO_MAXSTEP          IMXSTP            300            millibohr
       GEO_METHOD           INR            SINGLE_POINT[  5]    ***   
       GIAO                 IGIAO          OFF         [  1]    ***   
       GIMIC                IGIMIC         OFF         [  0]    ***   
       GRID                 IGRID          OFF         [  0]    ***   
       GRID_ALGO            IGALGO         SERIAL      [  0]    ***   
       GUESS                IGUESS         MOREAD      [  0]    ***   
       HBAR                 IHBAR          OFF         [  0]    ***   
       HESS_TYPE            IHESTP         SCF         [  0]    ***   
       HF2_FILE             IHF2Fl         USE         [  1]    ***   
       HFSTABILITY          ISTABL         OFF         [  0]    ***   
       INCORE               INCORE         OFF         [  0]    ***   
       INPUT_MRCC           IMRCC          ON          [  1]    ***   
       INTEGRALS            INTTYP         VMOL        [  1]    ***   
       JODA_PRINT           IJPRNT              0               ***   
       KEYWORD_OUT          IDMPKW         NO          [  0]    ***   
       LINDEP_TOL           ILINDP              8               ***   
       LINEQ_CONV           IZTACN          10D-  7           cycles  
       LINEQ_EXPOR          ILMAXD              5               ***   
       LINEQ_MAXCY          ILMAXC            100               ***   
       LINEQ_TYPE           ILTYPE         DIIS        [  1]    ***   
       LOCK_ORBOCC          ILOCOC         OFF         [  0]    ***   
       MEMORY_SIZE          IMEMSZ         500000000           words  
       MEM_UNIT             IMEMU          INTEGERWORDS[  0]    ***   
       MRCC                 IMRCCC         OFF         [  0]    ***   
       MULTIPLICTY          IMULTP              1               ***   
       NACOUPLING           IVCOUP         OFF         [  0]    ***   
       NEGEVAL              IDIE           ABORT       [  0]    ***   
       NEWNORM              INEWNO         OFF         [  0]    ***   
       NON-HF               INONHF         OFF         [  0]    ***   
       NTOP_TAMP            ITOPT2             15               ***   
       NUC_MODEL            INUCMO         POINT       [  0]    ***   
       OCCUPATION           IOCCU   ESTIMATED BY SCF 
       OPEN-SHELL           IOPEN          SPIN-ORBITAL[  0]    ***   
       OPTVIB               IOPTVB         OFF         [  0]    ***   
       ORBITALS             IORBTP         STANDARD    [  0]    ***   
       PARALLEL             IPARAL         ON          [  1]    ***   
       PARA_INT             IPINTS         ON          [  1]    ***   
       PARA_PRINT           IPPRIN              0               ***   
       PERT_ORB             IPTORB         STANDARD    [  0]    ***   
       POINTS               IGRDFD              0               ***   
       PRINT                IPRNT               0               ***   
       PROPS                IPROPS         OFF         [  0]    ***   
       PROP_INTEGR          IINTYP         INTERNAL    [  0]    ***   
       PSI                  IPSI           OFF         [  0]    ***   
       QC_ALG               IQCALG         FLM         [  0]    ***   
       QC_LINALG            IQCLIN         TRIDIAG     [  2]    ***   
       QC_MAXCYC            IQCMAX          10D-100           cycles  
       QC_MAXSCFCY          IQCMSC          10D- 15           cycles  
       QC_RTRUST            IQCRTR          10D-  0           x 10-3  
       QC_SKIPSCF           IQCSKI         OFF         [  0]    ***   
       QC_START             IQCSTA          10D-  1             ***   
       QRHFGUESS            IQGUES         OFF         [  0]    ***   
       QUARTIC              IQUART         OFF         [  0]    ***   
       RAMAN_INT            IRAMIN         OFF         [  0]    ***   
       RAMAN_ORB            IRAMRE         UNRELAXED   [  0]    ***   
       RDO                  IRDOFM         ON          [  1]    ***   
       REDUCE_REPR          REDREP         Ir          [  0]    ***   
       REFERENCE            IREFNC         RHF         [  0]    ***   
       RELATIVIST           IRELAT         OFF         [  0]    ***   
       RELAX_DENS           IRDENS         ON          [  1]    ***   
       RESET_FLAGS          IRESET         OFF         [  0]    ***   
       RESTART_CC           ICCRES         OFF         [  0]    ***   
       ROT_EVEC             ROTVEC              0               ***   
       SAVE_INTS            ISVINT         OFF         [  0]    ***   
       SCALE_ON             ISTCRT              0               ***   
       SCF_CONV             ISCFCV          10D- 10             ***   
       SCF_DAMPING          IDAMP               0             x 10-3  
       SCF_EXPORDE          IRPPOR              6               ***   
       SCF_EXPSTAR          IRPPLS              8               ***   
       SCF_EXTRAPO          IRPP           ON          [  1]    ***   
       SCF_MAXCYC           ISCFCY            150              cycles 
       SCF_NOSTOP           ISCFST         OFF         [  0]    ***   
       SCF_PRINT            ISCFPR              0               ***   
       SCF_PROG             ISCFPR         SCF         [  0]    ***   
       SD_FIELD             IFINSD              0             x 10-6  
       SOPERT               IPERSO         OFF         [  0]    ***   
       SPHERICAL            IDFGHI         ON          [  1]    ***   
       SPINORBIT            ISOCAL         OFF         [  0]    ***   
       SPINROTATIO          ISRCON         OFF         [  0]    ***   
       SPIN_FLIP            ISPFLP         OFF         [  0]    ***   
       SPIN_ORBIT           ISPORB         OFF         [  0]    ***   
       SPIN_SCAL            ISCSMP         OFF         [  0]    ***   
       STEEPSCALE           ISTPSC              1000          x 10-3  
       SUBGROUP             ISUBGP         DEFAULT     [  0]    ***   
       SUBGRPAXIS           ISBXYZ         X           [  0]    ***   
       SYMMETRY             ISYM           ON          [  0]    ***   
       SYM_CHECK            ISYMCK         OVERRIDE    [  1]    ***   
       T3_EXTRAPOL          IT3EXT         OFF         [  0]    ***   
       T4_EXTRAPOL          IT4EXP         OFF         [  0]    ***   
       TAMP_SUM             IEVERY              5               ***   
       TESTSUITE            ITESTS         OFF         [  0]    ***   
       THERMOCH             ITHERM         OFF         [  0]    ***   
       TOL_CHOLESK          ITOLCH          10D-  4             ***   
       TRANGRAD             IRESRM         OFF         [  0]    ***   
       TRANS_INV            ITRAIN         IGNORE      [  1]    ***   
       TREAT_PERT           ITREAT         SIMULTANEOUS[  0]    ***   
       TRIP_ALGORI          ITRALG         NORMAL      [  0]    ***   
       UIJ_THRESHO          IUIJTH              1               ***   
       UNITS                IUNITS         ANGSTROM    [  0]    ***   
       UNOS                 IUNOS          OFF         [  0]    ***   
       UPDATE_HESS          IHUPDT         ON          [  1]    ***   
       VIBPHASE             ISETPH         STANDARD    [  0]    ***   
       VIBRATION            IVIB           ANALYTIC    [  1]    ***   
       VIB_ALGORIT          IGEALG         STANDARD    [  0]    ***   
       VNATORB              IVNORB         OFF         [  0]    ***   
       VTRAN                IVTRAN         FULL/PARTIAL[  0]    ***   
       XFIELD               IXEFLD              0             x 10-6  
       XFORM_TOL            IXFTOL          10D- 11             ***   
       YFIELD               IYEFLD              0             x 10-6  
       ZFIELD               IZEFLD            ***             x 10-6  
       ZSCALE_EXP           IZEXPS         OFF         [  0]    ***   
    -------------------------------------------------------------------
   2 entries found in Z-matrix 
   Job Title : Carbon Monoxide DBOC calculation                                                
   There are  1 unique internal coordinates.
   Of these,  0 will be optimized.
   User supplied Z-matrix: 
--------------------------------------------------------------------------------
       SYMBOL    BOND      LENGTH    ANGLE     ANGLE     DIHED     ANGLE
                  TO      (ANGST)    WRT      (DEG)      WRT      (DEG)
--------------------------------------------------------------------------------
        C    
        O          1         r    
                  *Initial values for internal coordinates* 
                      Name             Value
                        r               1.7379310345
--------------------------------------------------------------------------------
  read isotopes from ZMAT file 
   Rotational constants (in cm-1): 
          0.7751880798             0.7751880798
   Rotational constants (in MHz): 
      23239.5572415300         23239.5572415300
********************************************************************************
   The full molecular point group is CXv .
   The largest Abelian subgroup of the full molecular point group is C2v .
   The computational point group is C2v .
********************************************************************************
--------------------------------------------------------------------------------
   Analysis of internal coordinates specified by Z-matrix 
--------------------------------------------------------------------------------
   *The nuclear repulsion energy is   14.615367523809523 a.u.
   *There is   1 degree of freedom within the tot. symm. molecular subspace.
   *Z-matrix requests optimization of   0 coordinates.
   *The optimization is constrained.
   *The following   1 parameters can have non-zero 
    derivatives within the totally symmetric subspace:
             r    [ 1]
   *The following   0 parameters are to be optimized:

   *The following coordinates must be varied in an  unconstrained optimization.
             r    [ 1]
--------------------------------------------------------------------------------


 ----------------------------------------------------------------
         Coordinates used in calculation (QCOMP) 
 ----------------------------------------------------------------
 Z-matrix   Atomic            Coordinates (in bohr)
  Symbol    Number           X              Y              Z
 ----------------------------------------------------------------
     C         6        -0.00000000     0.00000000     1.97049185
     O         8         0.00000000     0.00000000    -1.31372252
 ----------------------------------------------------------------
 
   Interatomic distance matrix (Angstroms) 
 
                 C             O    
                [ 1]        [ 2]
  C    [ 1]     0.00000
  O    [ 2]     1.73793     0.00000
 rotcon2
   Rotational constants (in cm-1): 
          0.7751880798             0.0000000000
   Rotational constants (in MHz): 
      23239.5572415300             0.0000000000
  ECPDATA file not present.   Using default ECPDATA. 
  @GTFLGS-I, Hessian will be transformed to curvilinear coordinates.
  There are  218 basis functions.
 @CHECKOUT-I, Total execution time (CPU/WALL):        0.20/       0.45 seconds.
--executable xjoda finished with status     0 in        0.51 seconds (walltime).
 --invoking executable--
/nfs/workspaces/public/cfour_mpi/bin/xvmol
 SERIAL VERSION OF MOLECULE STARTED
********************************************************************************
                    INPUT FROM MOL FILE
********************************************************************************
INTGRL        1    0    1    0    0    0    0    0    0                         
         *** CFOUR Program System (Release V0.1) ***                            
Carbon Monoxide DBOC calculation                                                
    2    2 X  Y       0.10E-08              0    0                              
   9999.00      3.00                                                            
          6.00000000    1    5    1    1    1    1    1                         
C #1  -0.000000000000000   0.000000000000000   1.970491849078790                
   16    9                                                                      
   33980.0000000000       9.100000000000000E-005 -1.900000000000000E-005        
  0.000000000000000E+000  0.000000000000000E+000  0.000000000000000E+000        
  0.000000000000000E+000  0.000000000000000E+000  0.000000000000000E+000        
  0.000000000000000E+000                                                        
   5089.00000000000       7.040000000000000E-004 -1.510000000000000E-004        
  0.000000000000000E+000  0.000000000000000E+000  0.000000000000000E+000        
  0.000000000000000E+000  0.000000000000000E+000  0.000000000000000E+000        
  0.000000000000000E+000                                                        
   1157.00000000000       3.693000000000000E-003 -7.850000000000000E-004        
  0.000000000000000E+000  0.000000000000000E+000  0.000000000000000E+000        
  0.000000000000000E+000  0.000000000000000E+000  0.000000000000000E+000        
  0.000000000000000E+000                                                        
   326.600000000000       1.536000000000000E-002 -3.324000000000000E-003        
  0.000000000000000E+000  0.000000000000000E+000  0.000000000000000E+000        
  0.000000000000000E+000  0.000000000000000E+000  0.000000000000000E+000        
  0.000000000000000E+000                                                        
   106.100000000000       5.292900000000000E-002 -1.151200000000000E-002        
  0.000000000000000E+000  0.000000000000000E+000  0.000000000000000E+000        
  0.000000000000000E+000  0.000000000000000E+000  0.000000000000000E+000        
  0.000000000000000E+000                                                        
   38.1100000000000       0.147043000000000      -3.416000000000000E-002        
  0.000000000000000E+000  0.000000000000000E+000  0.000000000000000E+000        
  0.000000000000000E+000  0.000000000000000E+000  0.000000000000000E+000        
  0.000000000000000E+000                                                        
   14.7500000000000       0.305631000000000      -7.717300000000001E-002        
  0.000000000000000E+000  0.000000000000000E+000  0.000000000000000E+000        
  0.000000000000000E+000  0.000000000000000E+000  0.000000000000000E+000        
  0.000000000000000E+000                                                        
   6.03500000000000       0.399345000000000      -0.141493000000000             
  0.000000000000000E+000  0.000000000000000E+000  0.000000000000000E+000        
  0.000000000000000E+000  0.000000000000000E+000  0.000000000000000E+000        
  0.000000000000000E+000                                                        
   2.53000000000000       0.217051000000000      -0.118019000000000             
  0.000000000000000E+000  0.000000000000000E+000  0.000000000000000E+000        
  0.000000000000000E+000  0.000000000000000E+000  0.000000000000000E+000        
  0.000000000000000E+000                                                        
  0.735500000000000       1.589400000000000E-002  0.273806000000000             
   1.00000000000000       0.000000000000000E+000  0.000000000000000E+000        
  0.000000000000000E+000  0.000000000000000E+000  0.000000000000000E+000        
  0.000000000000000E+000                                                        
  0.290500000000000      -3.084000000000000E-003  0.586510000000000             
  0.000000000000000E+000   1.00000000000000       0.000000000000000E+000        
  0.000000000000000E+000  0.000000000000000E+000  0.000000000000000E+000        
  0.000000000000000E+000                                                        
  0.111100000000000       9.779999999999999E-004  0.285430000000000             
  0.000000000000000E+000  0.000000000000000E+000   1.00000000000000             
  0.000000000000000E+000  0.000000000000000E+000  0.000000000000000E+000        
  0.000000000000000E+000                                                        
   7.21600000000000       0.000000000000000E+000  0.000000000000000E+000        
  0.000000000000000E+000  0.000000000000000E+000  0.000000000000000E+000        
   1.00000000000000       0.000000000000000E+000  0.000000000000000E+000        
  0.000000000000000E+000                                                        
   19.5700000000000       0.000000000000000E+000  0.000000000000000E+000        
  0.000000000000000E+000  0.000000000000000E+000  0.000000000000000E+000        
  0.000000000000000E+000   1.00000000000000       0.000000000000000E+000        
  0.000000000000000E+000                                                        
   53.0730000000000       0.000000000000000E+000  0.000000000000000E+000        
  0.000000000000000E+000  0.000000000000000E+000  0.000000000000000E+000        
  0.000000000000000E+000  0.000000000000000E+000   1.00000000000000             
  0.000000000000000E+000                                                        
  4.145000000000000E-002  0.000000000000000E+000  0.000000000000000E+000        
  0.000000000000000E+000  0.000000000000000E+000  0.000000000000000E+000        
  0.000000000000000E+000  0.000000000000000E+000  0.000000000000000E+000        
   1.00000000000000                                                             
   10    8                                                                      
   34.5100000000000       5.378000000000000E-003  0.000000000000000E+000        
  0.000000000000000E+000  0.000000000000000E+000  0.000000000000000E+000        
  0.000000000000000E+000  0.000000000000000E+000  0.000000000000000E+000        
   7.91500000000000       3.613200000000000E-002  0.000000000000000E+000        
  0.000000000000000E+000  0.000000000000000E+000  0.000000000000000E+000        
  0.000000000000000E+000  0.000000000000000E+000  0.000000000000000E+000        
   2.36800000000000       0.142493000000000       0.000000000000000E+000        
  0.000000000000000E+000  0.000000000000000E+000  0.000000000000000E+000        
  0.000000000000000E+000  0.000000000000000E+000  0.000000000000000E+000        
  0.813200000000000       0.342150000000000        1.00000000000000             
  0.000000000000000E+000  0.000000000000000E+000  0.000000000000000E+000        
  0.000000000000000E+000  0.000000000000000E+000  0.000000000000000E+000        
  0.289000000000000       0.463864000000000       0.000000000000000E+000        
   1.00000000000000       0.000000000000000E+000  0.000000000000000E+000        
  0.000000000000000E+000  0.000000000000000E+000  0.000000000000000E+000        
  0.100700000000000       0.250028000000000       0.000000000000000E+000        
  0.000000000000000E+000   1.00000000000000       0.000000000000000E+000        
  0.000000000000000E+000  0.000000000000000E+000  0.000000000000000E+000        
   8.18200000000000       0.000000000000000E+000  0.000000000000000E+000        
  0.000000000000000E+000  0.000000000000000E+000   1.00000000000000             
  0.000000000000000E+000  0.000000000000000E+000  0.000000000000000E+000        
   24.1860000000000       0.000000000000000E+000  0.000000000000000E+000        
  0.000000000000000E+000  0.000000000000000E+000  0.000000000000000E+000        
   1.00000000000000       0.000000000000000E+000  0.000000000000000E+000        
   71.4940000000000       0.000000000000000E+000  0.000000000000000E+000        
  0.000000000000000E+000  0.000000000000000E+000  0.000000000000000E+000        
  0.000000000000000E+000   1.00000000000000       0.000000000000000E+000        
  3.218000000000000E-002  0.000000000000000E+000  0.000000000000000E+000        
  0.000000000000000E+000  0.000000000000000E+000  0.000000000000000E+000        
  0.000000000000000E+000  0.000000000000000E+000   1.00000000000000             
    6    6                                                                      
   1.84800000000000        1.00000000000000       0.000000000000000E+000        
  0.000000000000000E+000  0.000000000000000E+000  0.000000000000000E+000        
  0.000000000000000E+000                                                        
  0.649000000000000       0.000000000000000E+000   1.00000000000000             
  0.000000000000000E+000  0.000000000000000E+000  0.000000000000000E+000        
  0.000000000000000E+000                                                        
  0.228000000000000       0.000000000000000E+000  0.000000000000000E+000        
   1.00000000000000       0.000000000000000E+000  0.000000000000000E+000        
  0.000000000000000E+000                                                        
   8.65600000000000       0.000000000000000E+000  0.000000000000000E+000        
  0.000000000000000E+000   1.00000000000000       0.000000000000000E+000        
  0.000000000000000E+000                                                        
   33.2130000000000       0.000000000000000E+000  0.000000000000000E+000        
  0.000000000000000E+000  0.000000000000000E+000   1.00000000000000             
  0.000000000000000E+000                                                        
  7.660000000000000E-002  0.000000000000000E+000  0.000000000000000E+000        
  0.000000000000000E+000  0.000000000000000E+000  0.000000000000000E+000        
   1.00000000000000                                                             
    4    4                                                                      
   1.41900000000000        1.00000000000000       0.000000000000000E+000        
  0.000000000000000E+000  0.000000000000000E+000                                
  0.485000000000000       0.000000000000000E+000   1.00000000000000             
  0.000000000000000E+000  0.000000000000000E+000                                
   24.6940000000000       0.000000000000000E+000  0.000000000000000E+000        
   1.00000000000000       0.000000000000000E+000                                
  0.187000000000000       0.000000000000000E+000  0.000000000000000E+000        
  0.000000000000000E+000   1.00000000000000                                     
    2    2                                                                      
   1.01100000000000        1.00000000000000       0.000000000000000E+000        
  0.424000000000000       0.000000000000000E+000   1.00000000000000             
          8.00000000    1    5    1    1    1    1    1                         
O #2   0.000000000000000   0.000000000000000  -1.313722517874652                
   16    9                                                                      
   61420.0000000000       9.000000000000001E-005 -2.000000000000000E-005        
  0.000000000000000E+000  0.000000000000000E+000  0.000000000000000E+000        
  0.000000000000000E+000  0.000000000000000E+000  0.000000000000000E+000        
  0.000000000000000E+000                                                        
   9199.00000000000       6.980000000000001E-004 -1.590000000000000E-004        
  0.000000000000000E+000  0.000000000000000E+000  0.000000000000000E+000        
  0.000000000000000E+000  0.000000000000000E+000  0.000000000000000E+000        
  0.000000000000000E+000                                                        
   2091.00000000000       3.664000000000000E-003 -8.290000000000000E-004        
  0.000000000000000E+000  0.000000000000000E+000  0.000000000000000E+000        
  0.000000000000000E+000  0.000000000000000E+000  0.000000000000000E+000        
  0.000000000000000E+000                                                        
   590.900000000000       1.521800000000000E-002 -3.508000000000000E-003        
  0.000000000000000E+000  0.000000000000000E+000  0.000000000000000E+000        
  0.000000000000000E+000  0.000000000000000E+000  0.000000000000000E+000        
  0.000000000000000E+000                                                        
   192.300000000000       5.242300000000000E-002 -1.215600000000000E-002        
  0.000000000000000E+000  0.000000000000000E+000  0.000000000000000E+000        
  0.000000000000000E+000  0.000000000000000E+000  0.000000000000000E+000        
  0.000000000000000E+000                                                        
   69.3200000000000       0.145921000000000      -3.626100000000000E-002        
  0.000000000000000E+000  0.000000000000000E+000  0.000000000000000E+000        
  0.000000000000000E+000  0.000000000000000E+000  0.000000000000000E+000        
  0.000000000000000E+000                                                        
   26.9700000000000       0.305258000000000      -8.299200000000000E-002        
  0.000000000000000E+000  0.000000000000000E+000  0.000000000000000E+000        
  0.000000000000000E+000  0.000000000000000E+000  0.000000000000000E+000        
  0.000000000000000E+000                                                        
   11.1000000000000       0.398508000000000      -0.152090000000000             
  0.000000000000000E+000  0.000000000000000E+000  0.000000000000000E+000        
  0.000000000000000E+000  0.000000000000000E+000  0.000000000000000E+000        
  0.000000000000000E+000                                                        
   4.68200000000000       0.216980000000000      -0.115331000000000             
  0.000000000000000E+000  0.000000000000000E+000  0.000000000000000E+000        
  0.000000000000000E+000  0.000000000000000E+000  0.000000000000000E+000        
  0.000000000000000E+000                                                        
   1.42800000000000       1.759400000000000E-002  0.288979000000000             
   1.00000000000000       0.000000000000000E+000  0.000000000000000E+000        
  0.000000000000000E+000  0.000000000000000E+000  0.000000000000000E+000        
  0.000000000000000E+000                                                        
  0.554700000000000      -2.502000000000000E-003  0.586128000000000             
  0.000000000000000E+000   1.00000000000000       0.000000000000000E+000        
  0.000000000000000E+000  0.000000000000000E+000  0.000000000000000E+000        
  0.000000000000000E+000                                                        
  0.206700000000000       9.540000000000000E-004  0.277624000000000             
  0.000000000000000E+000  0.000000000000000E+000   1.00000000000000             
  0.000000000000000E+000  0.000000000000000E+000  0.000000000000000E+000        
  0.000000000000000E+000                                                        
   12.9740000000000       0.000000000000000E+000  0.000000000000000E+000        
  0.000000000000000E+000  0.000000000000000E+000  0.000000000000000E+000        
   1.00000000000000       0.000000000000000E+000  0.000000000000000E+000        
  0.000000000000000E+000                                                        
   34.9000000000000       0.000000000000000E+000  0.000000000000000E+000        
  0.000000000000000E+000  0.000000000000000E+000  0.000000000000000E+000        
  0.000000000000000E+000   1.00000000000000       0.000000000000000E+000        
  0.000000000000000E+000                                                        
   93.8810000000000       0.000000000000000E+000  0.000000000000000E+000        
  0.000000000000000E+000  0.000000000000000E+000  0.000000000000000E+000        
  0.000000000000000E+000  0.000000000000000E+000   1.00000000000000             
  0.000000000000000E+000                                                        
  6.959000000000000E-002  0.000000000000000E+000  0.000000000000000E+000        
  0.000000000000000E+000  0.000000000000000E+000  0.000000000000000E+000        
  0.000000000000000E+000  0.000000000000000E+000  0.000000000000000E+000        
   1.00000000000000                                                             
   10    8                                                                      
   63.4200000000000       6.044000000000000E-003  0.000000000000000E+000        
  0.000000000000000E+000  0.000000000000000E+000  0.000000000000000E+000        
  0.000000000000000E+000  0.000000000000000E+000  0.000000000000000E+000        
   14.6600000000000       4.179900000000000E-002  0.000000000000000E+000        
  0.000000000000000E+000  0.000000000000000E+000  0.000000000000000E+000        
  0.000000000000000E+000  0.000000000000000E+000  0.000000000000000E+000        
   4.45900000000000       0.161143000000000       0.000000000000000E+000        
  0.000000000000000E+000  0.000000000000000E+000  0.000000000000000E+000        
  0.000000000000000E+000  0.000000000000000E+000  0.000000000000000E+000        
   1.53100000000000       0.356731000000000        1.00000000000000             
  0.000000000000000E+000  0.000000000000000E+000  0.000000000000000E+000        
  0.000000000000000E+000  0.000000000000000E+000  0.000000000000000E+000        
  0.530200000000000       0.448309000000000       0.000000000000000E+000        
   1.00000000000000       0.000000000000000E+000  0.000000000000000E+000        
  0.000000000000000E+000  0.000000000000000E+000  0.000000000000000E+000        
  0.175000000000000       0.244940000000000       0.000000000000000E+000        
  0.000000000000000E+000   1.00000000000000       0.000000000000000E+000        
  0.000000000000000E+000  0.000000000000000E+000  0.000000000000000E+000        
   14.4750000000000       0.000000000000000E+000  0.000000000000000E+000        
  0.000000000000000E+000  0.000000000000000E+000   1.00000000000000             
  0.000000000000000E+000  0.000000000000000E+000  0.000000000000000E+000        
   42.7300000000000       0.000000000000000E+000  0.000000000000000E+000        
  0.000000000000000E+000  0.000000000000000E+000  0.000000000000000E+000        
   1.00000000000000       0.000000000000000E+000  0.000000000000000E+000        
   126.140000000000       0.000000000000000E+000  0.000000000000000E+000        
  0.000000000000000E+000  0.000000000000000E+000  0.000000000000000E+000        
  0.000000000000000E+000   1.00000000000000       0.000000000000000E+000        
  5.348000000000000E-002  0.000000000000000E+000  0.000000000000000E+000        
  0.000000000000000E+000  0.000000000000000E+000  0.000000000000000E+000        
  0.000000000000000E+000  0.000000000000000E+000   1.00000000000000             
    6    6                                                                      
   3.77500000000000        1.00000000000000       0.000000000000000E+000        
  0.000000000000000E+000  0.000000000000000E+000  0.000000000000000E+000        
  0.000000000000000E+000                                                        
   1.30000000000000       0.000000000000000E+000   1.00000000000000             
  0.000000000000000E+000  0.000000000000000E+000  0.000000000000000E+000        
  0.000000000000000E+000                                                        
  0.444000000000000       0.000000000000000E+000  0.000000000000000E+000        
   1.00000000000000       0.000000000000000E+000  0.000000000000000E+000        
  0.000000000000000E+000                                                        
   14.9270000000000       0.000000000000000E+000  0.000000000000000E+000        
  0.000000000000000E+000   1.00000000000000       0.000000000000000E+000        
  0.000000000000000E+000                                                        
   57.5440000000000       0.000000000000000E+000  0.000000000000000E+000        
  0.000000000000000E+000  0.000000000000000E+000   1.00000000000000             
  0.000000000000000E+000                                                        
  0.154000000000000       0.000000000000000E+000  0.000000000000000E+000        
  0.000000000000000E+000  0.000000000000000E+000  0.000000000000000E+000        
   1.00000000000000                                                             
    4    4                                                                      
   2.66600000000000        1.00000000000000       0.000000000000000E+000        
  0.000000000000000E+000  0.000000000000000E+000                                
  0.859000000000000       0.000000000000000E+000   1.00000000000000             
  0.000000000000000E+000  0.000000000000000E+000                                
   26.4830000000000       0.000000000000000E+000  0.000000000000000E+000        
   1.00000000000000       0.000000000000000E+000                                
  0.324000000000000       0.000000000000000E+000  0.000000000000000E+000        
  0.000000000000000E+000   1.00000000000000                                     
    2    2                                                                      
   1.84600000000000        1.00000000000000       0.000000000000000E+000        
  0.714000000000000       0.000000000000000E+000   1.00000000000000             
FINISH                                                                          
 
********************************************************************************
 ONE- AND TWO-ELECTRON INTEGRALS OVER SYMMETRY-ADAPTED AOS ARE CALCULATED.

  SPHERICAL HARMONICS ARE USED.
  
  INTEGRALS LESS THAN  0.10E-13 ARE NEGLECTED.

  NUCLEAR REPULSION ENERGY :   14.6153675238 A.U.
  @MOLECU-I, ONE ELECTRON INTEGRALS (CPU/WALL):        0.08/       0.13 SECONDS.
  @TWOEL-I,    4376943 INTEGRALS OF SYMMETRY TYPE  I I I I
  @TWOEL-I,   18890118 INTEGRALS OF SYMMETRY TYPE  I J I J
  @TWOEL-I,    9948265 INTEGRALS OF SYMMETRY TYPE  I I J J
  @TWOEL-I,   13942648 INTEGRALS OF SYMMETRY TYPE  I J K L
  @TWOEL-I, TOTAL NUMBER OF 2-E INTEGRALS   47157974.
  @MOLECU-I, TWO ELECTRON INTEGRALS (CPU/WALL):      246.53/      49.35 SECONDS.
 @CHECKOUT-I, Total execution time (CPU/WALL):      246.62/      49.50 seconds.

Running with 14 threads/proc

--executable xvmol finished with status     0 in       49.53 seconds (walltime).
 --invoking executable--
/nfs/workspaces/public/cfour_mpi/bin/xvmol2ja
 @GETMEM-I,  Allocated    3814 MB of main memory.
 @CHECKOUT-I, Total execution time (CPU/WALL):        0.09/       0.05 seconds.
--executable xvmol2ja finished with status     0 in        0.10 seconds (walltime).
 --invoking executable--
/nfs/workspaces/public/cfour_mpi/bin/xvprop
 @GETMEM-I,  Allocated    3814 MB of main memory.
   Property integrals will be calculated.
    --------------------------------------------------------------
                                   Property evaluated at 
    Property type                X             Y             Z
    --------------------------------------------------------------
    Dipole moment               ----          ----          ----  
    Quadrupole moment           ----          ----          ----  
    Octopole moment             ----          ----          ----  
    Relativisitic corr.         ----          ----          ----  
    Second moment            0.0000000     0.0000000     0.0000000
    Electron density         0.0000000     0.0000000     1.9704918
    Electron density         0.0000000     0.0000000    -1.3137225
    Field gradient           0.0000000     0.0000000     1.9704918
    Field gradient           0.0000000     0.0000000    -1.3137225
    Potential                0.0000000     0.0000000     1.9704918
    Potential                0.0000000     0.0000000    -1.3137225
    --------------------------------------------------------------
 @CHECKOUT-I, Total execution time (CPU/WALL):        1.69/       2.69 seconds.
--executable xvprop finished with status     0 in        2.75 seconds (walltime).
 --invoking executable--
/nfs/workspaces/public/cfour_mpi/bin/xvscf
  There are  218 functions in the AO basis.

  There are 4 irreducible representations.

       Irrep        # of functions
         1                 86
         2                 52
         3                 52
         4                 28


  Parameters for SCF calculation: 
        SCF reference function:  RHF  
  Maximum number of iterations:  150
     Full symmetry point group: CXv 
     Computational point group: C2v 
        Initial density matrix: MOREAD                 
     SCF convergence tolerance: 10**(-10)
  DIIS convergence acceleration:  ON
          Latest start for DIIS:   8
                     DIIS order:   6

  Memory information:    2523578 words required.
  Fock matrices are constructed from AO integral file.
 @GETMEM-I,  Allocated      19 MB of main memory.
  Initialization and symmetry analysis required      0.002 seconds.

  Adding electric field perturbation to one-electron Hamiltonian.
  Field direction     : Z
  Field strength      : -0.0002000 a.u.

  @INITGES-I, Occupancies from core Hamiltonian:

          Alpha population by irrep:   5    1    1    0
           Beta population by irrep:   5    1    1    0


 total no. of electrons in initial guess :  0.000000000000000E+000
  --------------------------------------------------------------------
  Iteration         Total Energy            Largest Density Difference
  --------------------------------------------------------------------
       0            14.615630157999158              0.0000000000D+00
   current occupation vector 
     5  1  1  0
     5  1  1  0
       1           -93.727905442766044              0.1756377055D+02
   current occupation vector 
     5  1  1  0
     5  1  1  0
       2           -97.663773413686428              0.1756376421D+02
   current occupation vector 
     5  1  1  0
     5  1  1  0
       3           -99.835445805645392              0.6968453118D+01
   current occupation vector 
     5  1  1  0
     5  1  1  0
       4           -94.335716603598087              0.6966712977D+01
   current occupation vector 
     5  1  1  0
     5  1  1  0
       5           -99.847720305618935              0.7065214662D+01
   current occupation vector 
     5  1  1  0
     5  1  1  0
       6           -94.235288418300556              0.7065268380D+01
   current occupation vector 
     5  1  1  0
     5  1  1  0
       7           -99.844939908351336              0.7069547712D+01
   current occupation vector 
     5  1  1  0
     5  1  1  0
       8           -94.232917869647096              0.7069550503D+01
   current occupation vector 
     5  1  1  0
     5  1  1  0
       9          -106.982109842213049              0.6086079275D+01
   current occupation vector 
     5  1  1  0
     5  1  1  0
      10          -110.530075795769108              0.1322231538D+01
   current occupation vector 
     5  1  1  0
     5  1  1  0
      11          -112.222279864151218              0.9965972202D+00
   current occupation vector 
     5  1  1  0
     5  1  1  0
      12          -112.373017484052212              0.6616985074D+00
   current occupation vector 
     5  1  1  0
     5  1  1  0
      13          -112.437543250662927              0.1506449105D+00
   current occupation vector 
     5  1  1  0
     5  1  1  0
      14          -112.454963922053494              0.1236687640D+00
   current occupation vector 
     5  1  1  0
     5  1  1  0
      15          -112.456401264009756              0.4708240628D-01
   current occupation vector 
     5  1  1  0
     5  1  1  0
      16          -112.457989521317558              0.7777454129D-01
   current occupation vector 
     5  1  1  0
     5  1  1  0
      17          -112.459009554523035              0.7824435783D-01
   current occupation vector 
     5  1  1  0
     5  1  1  0
      18          -112.459235649072070              0.4844259852D-01
   current occupation vector 
     5  1  1  0
     5  1  1  0
      19          -112.459237523507753              0.2492415158D-02
   current occupation vector 
     5  1  1  0
     5  1  1  0
      20          -112.459237640454617              0.1486602772D-02
   current occupation vector 
     5  1  1  0
     5  1  1  0
      21          -112.459237646058938              0.3726984538D-03
   current occupation vector 
     5  1  1  0
     5  1  1  0
      22          -112.459237647101190              0.1200486766D-03
   current occupation vector 
     5  1  1  0
     5  1  1  0
      23          -112.459237647103095              0.6072986886D-05
   current occupation vector 
     5  1  1  0
     5  1  1  0
      24          -112.459237647102611              0.6041080276D-06
   current occupation vector 
     5  1  1  0
     5  1  1  0
      25          -112.459237647104430              0.8646632832D-07
   current occupation vector 
     5  1  1  0
     5  1  1  0
      26          -112.459237647103620              0.5113028245D-07
   current occupation vector 
     5  1  1  0
     5  1  1  0
      27          -112.459237647102725              0.4651645313D-07
   current occupation vector 
     5  1  1  0
     5  1  1  0
      28          -112.459237647102867              0.1458386878D-07
   current occupation vector 
     5  1  1  0
     5  1  1  0
      29          -112.459237647103706              0.3144899896D-09
   current occupation vector 
     5  1  1  0
     5  1  1  0
      30          -112.459237647104658              0.5548719262D-09
   current occupation vector 
     5  1  1  0
     5  1  1  0

  SCF has converged.

 Density matrix saved to file den.dat
 total electron number:   13.9999999999997     
     E(SCF)=      -112.459237647103564              0.7766720600D-10

  Eigenvector printing suppressed.

 @PUTMOS-I, Writing converged MOs to NEWMOS. 
 @PUTMOS-I, Symmetry   1 Full Blocks 21 Partial Blocksize   2
 @PUTMOS-I, Symmetry   2 Full Blocks 13 Partial Blocksize   0
 @PUTMOS-I, Symmetry   3 Full Blocks 13 Partial Blocksize   0
 @PUTMOS-I, Symmetry   4 Full Blocks  7 Partial Blocksize   0
 @PUTFOCK-I, Writing converged Fock matrix to NEWFOCK. 
 @PUTFOCK-I, Symmetry   1 Full Blocks 21 Partial Blocksize   2
 @PUTFOCK-I, Symmetry   2 Full Blocks 13 Partial Blocksize   0
 @PUTFOCK-I, Symmetry   3 Full Blocks 13 Partial Blocksize   0
 @PUTFOCK-I, Symmetry   4 Full Blocks  7 Partial Blocksize   0


 
  ORBITAL EIGENVALUES (ALPHA)  (1H = 27.2113834 eV)

       MO #        E(hartree)               E(eV)           FULLSYM    COMPSYM
       ----   --------------------   --------------------   -------   ---------
    1     1         -20.6287110126        -561.3357644114     SG+        A1 (1)
    2     2         -11.5361877697        -313.9156283749     SG+        A1 (1)
    3     3          -1.2342162601         -33.5847318522     SG+        A1 (1)
    4     4          -0.8135067979         -22.1366453755     SG+        A1 (1)
    5     5          -0.4971191534         -13.5272998797     SG+        A1 (1)
    6   139          -0.4795710302         -13.0497911697      PI        B2 (3)
    7    87          -0.4795710302         -13.0497911697      PI        B1 (2)
  +++++++++++++++++++++++++++++++++++++++++++++++++++++++++++++++++++++++++++++
    8   140          -0.0253800143          -0.6906253004      PI        B2 (3)
    9    88          -0.0253800143          -0.6906253004      PI        B1 (2)
   10     6           0.0557498611           1.5170308448     SG+        A1 (1)
   11     7           0.0692705109           1.8849464308     SG+        A1 (1)
   12    89           0.0801728979           2.1816154633      PI        B1 (2)
   13   141           0.0801728979           2.1816154633      PI        B2 (3)
   14     8           0.1526418507           4.1535959226     SG+        A1 (1)
   15     9           0.1655470164           4.5047633333     SG+        A1 (1)
   16   142           0.1839805086           5.0063641589      PI        B2 (3)
   17    90           0.1839805086           5.0063641589      PI        B1 (2)
   18   191           0.2190294097           5.9600932438      DE        A2 (4)
   19    10           0.2190294097           5.9600932438      DE        A1 (1)
   20    91           0.2788218000           7.5871268990      PI        B1 (2)
   21   143           0.2788218000           7.5871268990      PI        B2 (3)
   22    11           0.2874638623           7.8222893706     SG+        A1 (1)
   23    12           0.3054908337           8.3128282000     SG+        A1 (1)
   24    13           0.4081009875          11.1049924375     SG+        A1 (1)
   25   144           0.4096173249          11.1462540755      PI        B2 (3)
   26    92           0.4096173249          11.1462540755      PI        B1 (2)
   27    14           0.5162064206          14.0466908248     SG+        A1 (1)
   28   192           0.5508264832          14.9887506203      DE        A2 (4)
   29    15           0.5508264832          14.9887506203      DE        A1 (1)
   30    93           0.6243898406          16.9905113446      PI        B1 (2)
   31   145           0.6243898406          16.9905113446      PI        B2 (3)
   32    16           0.6973577933          18.9760702796     SG+        A1 (1)
   33   146           0.7243662652          19.7110081631      PH        B2 (3)
   34    94           0.7243662652          19.7110081631      PH        B1 (2)
   35   193           0.7305643641          19.8796670106      DE        A2 (4)
   36    17           0.7305643641          19.8796670106      DE        A1 (1)
   37   147           0.7669614395          20.8700817845      PI        B2 (3)
   38    95           0.7669614395          20.8700817845      PI        B1 (2)
   39    18           0.8055809384          21.9209717738     SG+        A1 (1)
   40   194           0.8465127272          23.0347823721      DE        A2 (4)
   41    19           0.8465127272          23.0347823721      DE        A1 (1)
   42    96           0.8620237331          23.4568583018      PI        B1 (2)
   43   148           0.8620237331          23.4568583018      PI        B2 (3)
   44    20           0.9078796511          24.7046612676     SG+        A1 (1)
   45    97           1.0567163758          28.7547144472      PI        B1 (2)
   46   149           1.0567163758          28.7547144472      PI        B2 (3)
   47    21           1.1509367612          31.3185814791     SG+        A1 (1)
   48    22           1.3207287923          35.9388575349     SG+        A1 (1)
   49   150           1.4184588319          38.5982271125      PH        B2 (3)
   50    98           1.4184588319          38.5982271125      PH        B1 (2)
   51    99           1.4518659312          39.5072804990      PI        B1 (2)
   52   151           1.4518659312          39.5072804990      PI        B2 (3)
   53    23           1.5763629985          42.8950179284     SG+        A1 (1)
   54   195           1.5864728769          43.1701217071      DE        A2 (4)
   55    24           1.5864728769          43.1701217071      DE        A1 (1)
   56   100           1.6421623363          44.6855089390      PI        B1 (2)
   57   152           1.6421623363          44.6855089390      PI        B2 (3)
   58   196           1.6574210516          45.1007196914      DE        A2 (4)
   59    25           1.6574210516          45.1007196915      DE        A1 (1)
   60    26           1.8615240512          50.6546446651     SG+        A1 (1)
   61    27           1.9219383153          52.2986003683     SG+        A1 (1)
   62   101           2.0145374004          54.8183495758      PI        B1 (2)
   63   153           2.0145374004          54.8183495758      PI        B2 (3)
   64    28           2.0548677088          55.9157930592      PI        A1 (1)
   65   197           2.0548677088          55.9157930592      PI        A2 (4)
   66   198           2.1126290163          57.4875581451      DE        A2 (4)
   67    29           2.1126290163          57.4875581451      DE        A1 (1)
   68   154           2.1636958937          58.8771585243      PH        B2 (3)
   69   102           2.1636958937          58.8771585243      PH        B1 (2)
   70   155           2.1947493978          59.7221673292      PH        B2 (3)
   71   103           2.1947493978          59.7221673292      PH        B1 (2)
   72   104           2.1983993948          59.8214887982      PI        B1 (2)
   73   156           2.1983993948          59.8214887982      PI        B2 (3)
   74    30           2.2203750075          60.4194756212     SG+        A1 (1)
   75    31           2.2654902414          61.6471235488      DE        A1 (1)
   76   199           2.2654902414          61.6471235488      DE        A2 (4)
   77    32           2.3530313422          64.0292380036     SG+        A1 (1)
   78   105           2.4618223005          66.9895904813      PI        B1 (2)
   79   157           2.4618223005          66.9895904813      PI        B2 (3)
   80   200           2.5441220835          69.2290814317      DE        A2 (4)
   81    33           2.5441220835          69.2290814317      DE        A1 (1)
   82   106           2.6450616362          71.9757862996      PI        B1 (2)
   83   158           2.6450616362          71.9757862996      PI        B2 (3)
   84    34           2.6483653585          72.0656851521     SG+        A1 (1)
   85    35           2.7944538535          76.0409552004     SG+        A1 (1)
   86   107           3.2444466528          88.2858817908      PI        B1 (2)
   87   159           3.2444466528          88.2858817908      PI        B2 (3)
   88   201           3.7230861868         101.3103256614      PI        A2 (4)
   89    36           3.7230861868         101.3103256614      PI        A1 (1)
   90    37           3.7784786364         102.8176308433     SG+        A1 (1)
   91   160           3.8557696795         104.9208270503      PH        B2 (3)
   92   108           3.8557696795         104.9208270503      PH        B1 (2)
   93    38           4.0559690763         110.3685295924     SG+        A1 (1)
   94    39           4.1266364535         112.2914866877      DE        A1 (1)
   95   202           4.1266364535         112.2914866877      DE        A2 (4)
   96   109           4.1372451796         112.5801648020      PI        B1 (2)
   97   161           4.1372451796         112.5801648020      PI        B2 (3)
   98   110           4.1532369299         113.0153224498      PH        B1 (2)
   99   162           4.1532369299         113.0153224498      PH        B2 (3)
  100    40           4.3032515599         117.0974280622     SG+        A1 (1)
  101   203           4.3128437146         117.3584438628      DE        A2 (4)
  102    41           4.3128437146         117.3584438628      DE        A1 (1)
  103   111           4.4631341339         121.4480540819      PI        B1 (2)
  104   163           4.4631341339         121.4480540819      PI        B2 (3)
  105   204           4.5596519602         124.0744376595      DE        A2 (4)
  106    42           4.5596519602         124.0744376595      DE        A1 (1)
  107    43           4.8673875400         132.4483485065     SG+        A1 (1)
  108   164           4.9999447397         136.0554132917      PI        B2 (3)
  109   112           4.9999447397         136.0554132918      PI        B1 (2)
  110    44           5.0724632536         138.0287423749     SG+        A1 (1)
  111   113           5.3541329843         145.6933654113      PI        B1 (2)
  112   165           5.3541329843         145.6933654113      PI        B2 (3)
  113    45           5.8053386499         157.9712957689      PI        A1 (1)
  114   205           5.8053386499         157.9712957689      PI        A2 (4)
  115   114           5.8766608724         159.9120721111      PH        B1 (2)
  116   166           5.8766608724         159.9120721111      PH        B2 (3)
  117    46           5.9259148784         161.2523417520     SG+        A1 (1)
  118   206           6.0263454527         163.9851966147      DE        A2 (4)
  119    47           6.0263454527         163.9851966147      DE        A1 (1)
  120   167           6.0961166732         165.8837680453      PI        B2 (3)
  121   115           6.0961166732         165.8837680453      PI        B1 (2)
  122    48           6.1280185620         166.7518625723     SG+        A1 (1)
  123   207           6.2371539854         169.7215884228      DE        A2 (4)
  124    49           6.2371539854         169.7215884228      DE        A1 (1)
  125   116           6.3295563812         172.2359854410      PH        B1 (2)
  126   168           6.3295563812         172.2359854410      PH        B2 (3)
  127   208           6.4573004373         175.7120779291      DE        A2 (4)
  128    50           6.4573004373         175.7120779291      DE        A1 (1)
  129   117           6.6734356064         181.5934148818      PI        B1 (2)
  130   169           6.6734356064         181.5934148818      PI        B2 (3)
  131   118           6.9493653975         189.1018462191      PI        B1 (2)
  132   170           6.9493653975         189.1018462191      PI        B2 (3)
  133    51           7.0396636586         191.5589868220     SG+        A1 (1)
  134    52           7.4012819059         201.3991195933     SG+        A1 (1)
  135    53           9.2736161106         252.3479234900     SG+        A1 (1)
  136   171           9.5822801740         260.7470996609      PI        B2 (3)
  137   119           9.5822801740         260.7470996611      PI        B1 (2)
  138    54          10.6416747091         289.5746905271     SG+        A1 (1)
  139   209          10.6844979453         290.7399700253      PI        A2 (4)
  140    55          10.6844979453         290.7399700253      PI        A1 (1)
  141   120          10.7240073897         291.8150766669      PH        B1 (2)
  142   172          10.7240073897         291.8150766669      PH        B2 (3)
  143   210          10.9122904911         296.9385203244      DE        A2 (4)
  144    56          10.9122904911         296.9385203244      DE        A1 (1)
  145   121          11.0013658419         299.3623838470      PI        B1 (2)
  146   173          11.0013658419         299.3623838470      PI        B2 (3)
  147    57          11.0909391635         301.7997978444     SG+        A1 (1)
  148   174          11.9188876367         324.3294211826      PH        B2 (3)
  149   122          11.9188876367         324.3294211826      PH        B1 (2)
  150   211          11.9727760740         325.7958001124      DE        A2 (4)
  151    58          11.9727760740         325.7958001124      DE        A1 (1)
  152   123          12.1662714532         331.0610770612      PI        B1 (2)
  153   175          12.1662714532         331.0610770612      PI        B2 (3)
  154    59          12.4516365171         338.8262552251     SG+        A1 (1)
  155    60          12.7243651311         346.2475781051      DE        A1 (1)
  156   212          12.7243651311         346.2475781051      DE        A2 (4)
  157   124          13.0856360217         356.0782588188      PI        B1 (2)
  158   176          13.0856360217         356.0782588188      PI        B2 (3)
  159    61          13.3066315210         362.0918520810     SG+        A1 (1)
  160    62          17.1585626650         466.9082272699     SG+        A1 (1)
  161   177          18.6531501452         507.5780202179      PI        B2 (3)
  162   125          18.6531501452         507.5780202181      PI        B1 (2)
  163    63          19.3489996260         526.5130472297     SG+        A1 (1)
  164   213          26.2298149653         713.7495515320      DE        A2 (4)
  165    64          26.2298149653         713.7495515320      DE        A1 (1)
  166   178          26.4297214937         719.1892847203      PI        B2 (3)
  167   126          26.4297214937         719.1892847203      PI        B1 (2)
  168    65          26.8322865334         730.1436363599     SG+        A1 (1)
  169   179          33.3233616206         906.7747692342      PI        B2 (3)
  170   127          33.3233616206         906.7747692349      PI        B1 (2)
  171    66          34.1098050764         928.1749836338     SG+        A1 (1)
  172    67          35.4898335572         965.7274677259     SG+        A1 (1)
  173    68          47.0849133270        1281.2456288959      DE        A1 (1)
  174   214          47.0849133270        1281.2456288960      DE        A2 (4)
  175   128          47.2576420499        1285.9458163998      PI        B1 (2)
  176   180          47.2576420499        1285.9458163998      PI        B2 (3)
  177    69          47.3895951235        1289.5364420759     SG+        A1 (1)
  178    70          63.6151695473        1731.0567686067     SG+        A1 (1)
  179   181          66.2508142648        1802.7763075211      PI        B2 (3)
  180   129          66.2508142648        1802.7763075213      PI        B1 (2)
  181    71          66.7730541008        1816.9871759246     SG+        A1 (1)
  182   130          98.4903660198        2680.0591109721      PH        B1 (2)
  183   182          98.4903660198        2680.0591109722      PH        B2 (3)
  184   215          98.5060372903        2680.4855479217      DE        A2 (4)
  185    72          98.5060372903        2680.4855479217      DE        A1 (1)
  186   131          98.5203745081        2680.8756834528      PI        B1 (2)
  187   183          98.5203745081        2680.8756834529      PI        B2 (3)
  188    73          98.5268552788        2681.0520341882     SG+        A1 (1)
  189   216         103.3248131416        2811.6111051294      DE        A2 (4)
  190    74         103.3248131416        2811.6111051305      DE        A1 (1)
  191   132         103.3311144036        2811.7825711854      PI        B1 (2)
  192   184         103.3311144036        2811.7825711855      PI        B2 (3)
  193   133         103.3374120876        2811.9539398790      PH        B1 (2)
  194   185         103.3374120876        2811.9539398791      PH        B2 (3)
  195    75         103.3429206595        2812.1038357402     SG+        A1 (1)
  196   217         114.9395241906        3127.6634605652      DE        A2 (4)
  197    76         114.9395241906        3127.6634605652      DE        A1 (1)
  198   186         115.0375378476        3130.3305477643      PI        B2 (3)
  199   134         115.0375378476        3130.3305477643      PI        B1 (2)
  200    77         115.2058112015        3134.9094985126     SG+        A1 (1)
  201   187         116.6479578485        3174.1523038429      PI        B2 (3)
  202   135         116.6479578485        3174.1523038434      PI        B1 (2)
  203    78         117.3156808186        3192.3219695863     SG+        A1 (1)
  204    79         121.7520622318        3313.0420451312     SG+        A1 (1)
  205    80         198.5700663345        5403.3662067909      DE        A1 (1)
  206   218         198.5700663345        5403.3662067909      DE        A2 (4)
  207   136         198.6639949272        5405.9221337386      PI        B1 (2)
  208   188         198.6639949272        5405.9221337387      PI        B2 (3)
  209    81         198.7343745773        5407.8372613825     SG+        A1 (1)
  210    82         216.1518968443        5881.7921376687     SG+        A1 (1)
  211   189         224.7418411829        6115.5364064507      PI        B2 (3)
  212   137         224.7418411829        6115.5364064509      PI        B1 (2)
  213    83         225.1537744424        6126.7456803080     SG+        A1 (1)
  214   190         395.2034668036       10754.0330562007      PI        B2 (3)
  215   138         395.2034668036       10754.0330562009      PI        B1 (2)
  216    84         395.7134919964       10767.9115472669     SG+        A1 (1)
  217    85         508.5109501760       13837.2864283363     SG+        A1 (1)
  218    86         894.9627503086       24353.1745273662     SG+        A1 (1)


  VSCF finished.

 @CHECKOUT-I, Total execution time (CPU/WALL):       41.00/      16.75 seconds.
--executable xvscf finished with status     0 in       16.80 seconds (walltime).
 --invoking executable--
/nfs/workspaces/public/cfour_mpi/bin/xvtran
 @GETMEM-I,  Allocated    3814 MB of main memory.
  Full RHF integral transformation
  Transformation of IIII integrals :
  1 pass through the AO integral file was required.
     4376943 AO integrals were read.
     8534536 MO integrals were written to HF2.
  Transformation of IIJJ integrals :
  1 pass through the AO integral file was required.
     9948265 AO integrals were read.
    14279180 MO integrals were written to HF2.
  Transformation of IJIJ integrals :
  1 pass through the AO integral file was required.
    18890118 AO integrals were read.
    26482771 MO integrals were written to HF2.
  Transformation of IJKL integrals :
  1 pass through the AO integral file was required.
    13942648 AO integrals were read.
    17941766 MO integrals were written to HF2.
  Summary of active molecular orbitals: 
------------------------------------------------------------------------
 
  Index      Eigenvalue    Symmetry    Index      Eigenvalue    Symmetry
------------------------------------------------------------------------
     1       -20.6287110        1       110         4.1372452        2
     2       -11.5361878        1       111         4.1532369        2
     3        -1.2342163        1       112         4.4631341        2
     4        -0.8135068        1       113         4.9999447        2
     5        -0.4971192        1       114         5.3541330        2
     6        -0.4795710        2       115         5.8766609        2
     7        -0.4795710        3       116         6.0961167        2
     8         0.0557499        1       117         6.3295564        2
     9         0.0692705        1       118         6.6734356        2
    10         0.1526419        1       119         6.9493654        2
    11         0.1655470        1       120         9.5822802        2
    12         0.2190294        1       121        10.7240074        2
    13         0.2874639        1       122        11.0013658        2
    14         0.3054908        1       123        11.9188876        2
    15         0.4081010        1       124        12.1662715        2
    16         0.5162064        1       125        13.0856360        2
    17         0.5508265        1       126        18.6531501        2
    18         0.6973578        1       127        26.4297215        2
    19         0.7305644        1       128        33.3233616        2
    20         0.8055809        1       129        47.2576420        2
    21         0.8465127        1       130        66.2508143        2
    22         0.9078797        1       131        98.4903660        2
    23         1.1509368        1       132        98.5203745        2
    24         1.3207288        1       133       103.3311144        2
    25         1.5763630        1       134       103.3374121        2
    26         1.5864729        1       135       115.0375378        2
    27         1.6574211        1       136       116.6479578        2
    28         1.8615241        1       137       198.6639949        2
    29         1.9219383        1       138       224.7418412        2
    30         2.0548677        1       139       395.2034668        2
    31         2.1126290        1       140        -0.0253800        3
    32         2.2203750        1       141         0.0801729        3
    33         2.2654902        1       142         0.1839805        3
    34         2.3530313        1       143         0.2788218        3
    35         2.5441221        1       144         0.4096173        3
    36         2.6483654        1       145         0.6243898        3
    37         2.7944539        1       146         0.7243663        3
    38         3.7230862        1       147         0.7669614        3
    39         3.7784786        1       148         0.8620237        3
    40         4.0559691        1       149         1.0567164        3
    41         4.1266365        1       150         1.4184588        3
    42         4.3032516        1       151         1.4518659        3
    43         4.3128437        1       152         1.6421623        3
    44         4.5596520        1       153         2.0145374        3
    45         4.8673875        1       154         2.1636959        3
    46         5.0724633        1       155         2.1947494        3
    47         5.8053386        1       156         2.1983994        3
    48         5.9259149        1       157         2.4618223        3
    49         6.0263455        1       158         2.6450616        3
    50         6.1280186        1       159         3.2444467        3
    51         6.2371540        1       160         3.8557697        3
    52         6.4573004        1       161         4.1372452        3
    53         7.0396637        1       162         4.1532369        3
    54         7.4012819        1       163         4.4631341        3
    55         9.2736161        1       164         4.9999447        3
    56        10.6416747        1       165         5.3541330        3
    57        10.6844979        1       166         5.8766609        3
    58        10.9122905        1       167         6.0961167        3
    59        11.0909392        1       168         6.3295564        3
    60        11.9727761        1       169         6.6734356        3
    61        12.4516365        1       170         6.9493654        3
    62        12.7243651        1       171         9.5822802        3
    63        13.3066315        1       172        10.7240074        3
    64        17.1585627        1       173        11.0013658        3
    65        19.3489996        1       174        11.9188876        3
    66        26.2298150        1       175        12.1662715        3
    67        26.8322865        1       176        13.0856360        3
    68        34.1098051        1       177        18.6531501        3
    69        35.4898336        1       178        26.4297215        3
    70        47.0849133        1       179        33.3233616        3
    71        47.3895951        1       180        47.2576420        3
    72        63.6151695        1       181        66.2508143        3
    73        66.7730541        1       182        98.4903660        3
    74        98.5060373        1       183        98.5203745        3
    75        98.5268553        1       184       103.3311144        3
    76       103.3248131        1       185       103.3374121        3
    77       103.3429207        1       186       115.0375378        3
    78       114.9395242        1       187       116.6479578        3
    79       115.2058112        1       188       198.6639949        3
    80       117.3156808        1       189       224.7418412        3
    81       121.7520622        1       190       395.2034668        3
    82       198.5700663        1       191         0.2190294        4
    83       198.7343746        1       192         0.5508265        4
    84       216.1518968        1       193         0.7305644        4
    85       225.1537744        1       194         0.8465127        4
    86       395.7134920        1       195         1.5864729        4
    87       508.5109502        1       196         1.6574211        4
    88       894.9627503        1       197         2.0548677        4
    89        -0.0253800        2       198         2.1126290        4
    90         0.0801729        2       199         2.2654902        4
    91         0.1839805        2       200         2.5441221        4
    92         0.2788218        2       201         3.7230862        4
    93         0.4096173        2       202         4.1266365        4
    94         0.6243898        2       203         4.3128437        4
    95         0.7243663        2       204         4.5596520        4
    96         0.7669614        2       205         5.8053386        4
    97         0.8620237        2       206         6.0263455        4
    98         1.0567164        2       207         6.2371540        4
    99         1.4184588        2       208         6.4573004        4
   100         1.4518659        2       209        10.6844979        4
   101         1.6421623        2       210        10.9122905        4
   102         2.0145374        2       211        11.9727761        4
   103         2.1636959        2       212        12.7243651        4
   104         2.1947494        2       213        26.2298150        4
   105         2.1983994        2       214        47.0849133        4
   106         2.4618223        2       215        98.5060373        4
   107         2.6450616        2       216       103.3248131        4
   108         3.2444467        2       217       114.9395242        4
   109         3.8557697        2       218       198.5700663        4
------------------------------------------------------------------------
  -20.6287110125899       -11.5361877696691       -1.23421626010446     
 -0.813506797875525      -0.497119153439982      -0.479571030177017     
 -0.479571030177027       5.574986109560540E-002  6.927051091257301E-002
  0.152641850712322       0.165547016375392       0.219029409721452     
  0.287463862294955       0.305490833663220       0.408100987524716     
  0.516206420612242       0.550826483167676       0.697357793267107     
  0.730564364126715       0.805580938372349       0.846512727175251     
  0.907879651116399        1.15093676123267        1.32072879230784     
   1.57636299845115        1.58647287690337        1.65742105164178     
   1.86152405118547        1.92193831528125        2.05486770875528     
   2.11262901632118        2.22037500751396        2.26549024144003     
   2.35303134215459        2.54412208354488        2.64836535845106     
   2.79445385347000        3.72308618684338        3.77847863638259     
   4.05596907625240        4.12663645346563        4.30325155986828     
   4.31284371461858        4.55965196019676        4.86738753996995     
   5.07246325355386        5.80533864988828        5.92591487840455     
[...]
 Convergence information after    20 iterations: 
 Largest element of residual vector : -0.19984743E-06.
 Largest element of DIIS residual   : -0.10202236E-06.
 Convergence information after    21 iterations: 
 Largest element of residual vector :  0.11992896E-06.
 Largest element of DIIS residual   :  0.55063280E-07.
 Perturbed amplitude equations converged in    21 iterations.
  Dominant contributions to perturbed wavefunction:
    7    0   46    0   0.2893212639 AA  
    7    0   22    0   0.2524325648 AA  
    7    7  140   22  -0.2229398757 ABAB
    7    7   22  140  -0.2229398757 ABAB
    7    0   36    0   0.2225073694 AA  
    7    0   28    0   0.2078586654 AA  
    7    7  140   46  -0.2071481359 ABAB
    7    7   46  140  -0.2071481359 ABAB
    7    0   32    0   0.2014939473 AA  
    7    7  140   32  -0.1875239331 ABAB
    7    7   32  140  -0.1875239331 ABAB
    7    0   25    0   0.1845957566 AA  
    7    0   54    0  -0.1825618588 AA  
    7    0   16    0  -0.1789151686 AA  
    7    0   56    0   0.1736524148 AA  
    7    0   39    0   0.1683730962 AA  
    7    0   24    0   0.1659879230 AA  
    7    7  140   36  -0.1542172749 ABAB
    7    7   36  140  -0.1542172749 ABAB
    7    7  140   28  -0.1494105160 ABAB
  norm of converged amps    1.57033170601558     
 Starting iterative solution of the perturbed Lambda equations.
 The DIIS procedure is used to accelerate convergence.
 Convergence criterion is 10**(-7).
 Maximum number of iterations is 100.
 Convergence information after     1 iterations: 
 Largest element of residual vector :  0.76767137E-01.
 Largest element of DIIS residual   :  0.76767137E-01.
 Convergence information after     2 iterations: 
 Largest element of residual vector :  0.19989143E-01.
 Largest element of DIIS residual   :  0.14787045E-01.
 Convergence information after     3 iterations: 
 Largest element of residual vector :  0.64535941E-02.
 Largest element of DIIS residual   :  0.56631732E-02.
 Convergence information after     4 iterations: 
 Largest element of residual vector :  0.30980081E-02.
 Largest element of DIIS residual   :  0.29589123E-02.
 Convergence information after     5 iterations: 
 Largest element of residual vector :  0.30795889E-02.
 Largest element of DIIS residual   :  0.27166707E-02.
 Convergence information after     6 iterations: 
 Largest element of residual vector :  0.18578097E-02.
 Largest element of DIIS residual   :  0.92787202E-03.
 Convergence information after     7 iterations: 
 Largest element of residual vector :  0.10085664E-02.
 Largest element of DIIS residual   :  0.49186760E-03.
 Convergence information after     8 iterations: 
 Largest element of residual vector :  0.38290906E-03.
 Largest element of DIIS residual   :  0.19127525E-03.
 Convergence information after     9 iterations: 
 Largest element of residual vector :  0.16149267E-03.
 Largest element of DIIS residual   :  0.95699510E-04.
 Convergence information after    10 iterations: 
 Largest element of residual vector :  0.11201935E-03.
 Largest element of DIIS residual   : -0.76529246E-04.
 Convergence information after    11 iterations: 
 Largest element of residual vector : -0.42453190E-04.
 Largest element of DIIS residual   : -0.18625685E-04.
 Convergence information after    12 iterations: 
 Largest element of residual vector :  0.24694153E-04.
 Largest element of DIIS residual   :  0.12589713E-04.
 Convergence information after    13 iterations: 
 Largest element of residual vector :  0.70085711E-05.
 Largest element of DIIS residual   :  0.54663230E-05.
 Convergence information after    14 iterations: 
 Largest element of residual vector :  0.67566777E-05.
 Largest element of DIIS residual   :  0.33413975E-05.
 Convergence information after    15 iterations: 
 Largest element of residual vector :  0.37565622E-05.
 Largest element of DIIS residual   :  0.18911886E-05.
 Convergence information after    16 iterations: 
 Largest element of residual vector :  0.15127495E-05.
 Largest element of DIIS residual   :  0.42759449E-06.
 Convergence information after    17 iterations: 
 Largest element of residual vector :  0.82813072E-06.
 Largest element of DIIS residual   :  0.40054418E-06.
 Convergence information after    18 iterations: 
 Largest element of residual vector :  0.18698894E-06.
 Largest element of DIIS residual   : -0.15247440E-06.
 Convergence information after    19 iterations: 
 Largest element of residual vector :  0.16874766E-06.
 Largest element of DIIS residual   :  0.77781005E-07.
 Perturbed Lambda equations converged in    19 iterations.
  Dominant contributions to perturbed wavefunction:
    7    7  140   22  -0.1560662939 ABAB
    7    7   22  140  -0.1560662939 ABAB
    7    7  140   46  -0.1400184913 ABAB
    7    7   46  140  -0.1400184913 ABAB
    7    7  140   32  -0.1321143814 ABAB
    7    7   32  140  -0.1321143814 ABAB
    7    7  140   36  -0.1041130763 ABAB
    7    7   36  140  -0.1041130763 ABAB
    7    7  140   28  -0.1012290384 ABAB
    7    7   28  140  -0.1012290384 ABAB
    7    7  140   56  -0.1010980344 ABAB
    7    7   56  140  -0.1010980344 ABAB
    7    7  140   39  -0.0991069661 ABAB
    7    7   39  140  -0.0991069661 ABAB
    7    6   22   89  -0.0980123735 ABAB
    6    7   89   22  -0.0980123735 ABAB
    7    7  140   45  -0.0974845231 ABAB
    7    7   45  140  -0.0974845231 ABAB
    7    7  140   16   0.0973303233 ABAB
    7    7   16  140   0.0973303233 ABAB
        The DBOC first-order density matrix is being calculated 
             (Symmetry block 3, perturbation   2)
 term   2.57418039926962     
 final tnorm  0.683748527969776     
  norm contr. I: |<0|L dT/dx|0>|^2   0.000000000000000E+000
  norm contr. II: <0|[nabla(1+L)e-T][nabla e^T]|0>   2.57418039926962     
  total norm contribution   2.57418039926962     
 oo  1.130317573855451E-002
 vv  -17.0931813824285     
 vo -2.288342339146934E-004
  Correlated perturbed 1-el contribution to DBOC  -17.0821070409239       cm**-1
  SUM_I |dc_I/dx|^2 contribution to DBOC   8.61165991925322       cm**-1
 
 
  The total diagonal Born-Oppenheimer correction (DBOC) is:      0.0038671433 a.u.
  The total diagonal Born-Oppenheimer correction (DBOC) is:        848.739842 cm-1
 
 Total CC energy including DBOC  -113.014503714174     
 First-order density matrix is being calculated  (Symmetry block 3, perturbation   2)
 Calculation of the contributions of <pq||rs> to dI(i,j)/dx required   4.8 seconds.
 Calculation of the contributions of <pq||rs> to dI(a,b)/dx required  15.1 seconds.
 Calculation of the contributions of <pq||rs> to dI(i,a)/dx required   9.1 seconds.
 First-order Z-vector equations are solved for 1 perturbation.
 Convergence reached after  20 iterations.
        U*G(pq,rs) contribution is being calculated
             (Symmetry block 3, perturbation   2)

 CCSD contribution to force constants 

        0.0000000000        0.0000000000        0.0000000000
        0.0000000000        0.0000000000        0.0000000000
        0.0000000000        0.0000000000        0.0000000000
        0.0000000000        0.0000000000        0.0000000000
        0.0000000000        0.0000000000        0.0000000000
        0.0000000000        0.0000000000        0.0000000000
        0.0000000000        0.0000000000        0.0000000000
        0.0000000000        0.0000000000        0.0000000000
        0.0000000000        0.0000000000        0.0000000000
        0.0000000000        0.0000000000        0.0000000000
        0.0000000000        0.0000000000        0.0000000000
        0.0000000000       -9.8144116628        9.8144116628

 CCSD contribution to dipole derivatives 

        0.0000000000        0.0000000000        0.0000000000
        0.0000000000        0.0000000000        0.0000000000
        0.0000000000        0.0000000000        0.0000000000
        0.0000000000        0.0000000000       -0.0559136499
        0.0000000000        0.0000000000        0.0000000000
        0.0000000000        0.0000000000        0.0000000000
 @CHECKOUT-I, Total execution time (CPU/WALL):     1255.36/     476.25 seconds.
--executable xsdcc finished with status     0 in      476.53 seconds (walltime).
 --invoking executable--
/nfs/workspaces/public/cfour_mpi/bin/xanti
 @GETMEM-I,  Allocated    3814 MB of main memory.
 CCSD MO derivative gammas will be sorted to Mulliken order.
 @CHECKOUT-I, Total execution time (CPU/WALL):       11.77/      16.62 seconds.
--executable xanti finished with status     0 in       16.83 seconds (walltime).
 --invoking executable--
/nfs/workspaces/public/cfour_mpi/bin/xbcktrn
 @GETMEM-I,  Allocated    3814 MB of main memory.
 CCSD MO derivative gammas will be transformed to the AO basis.
 @CHECKOUT-I, Total execution time (CPU/WALL):       20.73/      14.13 seconds.
--executable xbcktrn finished with status     0 in       14.23 seconds (walltime).
 --invoking executable--
/nfs/workspaces/public/cfour_mpi/bin/xvdint
 @GETMEM-I,  Allocated    3814 MB of main memory.
 One- and two-electron integral derivatives are calculated
 for RHF-CC/MBPT hessians and dipole derivatives.
 Spherical gaussians are used.
  magnet F F
                    8722  records have been written to the Sort file.
  Total length of Sort file :             178609116  words.
 Evaluation of 2el integral derivatives

                      Two-electron integral gradient
                      ------------------------------

                         C #1 z     0.0000000000
                         O #2 z     0.0000000000


 C #1       0.0000000000            0.0706189523            0.0000000000
 O #2       0.0000000000           -0.0706189523            0.0000000000


 Evaluation of 2e integral derivatives required  286.93 seconds.
  contribution to Hessian
        0.0000000000        0.0000000000        0.0000000000
        0.0000000000        0.0706189523       -0.0706189523
 @CHECKOUT-I, Total execution time (CPU/WALL):      286.91/      62.89 seconds.
--executable xvdint finished with status     0 in       63.10 seconds (walltime).
 --invoking executable--
/nfs/workspaces/public/cfour_mpi/bin/xanti
 @GETMEM-I,  Allocated    3814 MB of main memory.
 CCSD MO gammas will be sorted to Mulliken order.
 @CHECKOUT-I, Total execution time (CPU/WALL):       16.63/      46.84 seconds.
--executable xanti finished with status     0 in       47.06 seconds (walltime).
 --invoking executable--
/nfs/workspaces/public/cfour_mpi/bin/xbcktrn
 @GETMEM-I,  Allocated    3814 MB of main memory.
 CCSD MO gammas will be transformed to the AO basis.
 @CHECKOUT-I, Total execution time (CPU/WALL):       43.00/       7.82 seconds.
--executable xbcktrn finished with status     0 in        7.95 seconds (walltime).
 --invoking executable--
/nfs/workspaces/public/cfour_mpi/bin/xvdint
 @GETMEM-I,  Allocated    3814 MB of main memory.
 One- and two-electron integral derivatives are calculated
 for RHF-CC/MBPT hessians and dipole derivatives.
 Spherical gaussians are used.
  magnet F F

                     Kinetic energy integral gradient
                     --------------------------------

                         C #1 z    -0.3947962403
                         O #2 z     0.3947962403


 C #1       0.0000000000            0.0000000000           -0.3947962403
 O #2       0.0000000000            0.0000000000            0.3947962403



                   Nuclear attraction integral gradient
                   ------------------------------------

                         C #1 z    11.8017663579
                         O #2 z   -11.8017663579


 C #1       0.0000000000            0.0000000000           11.8017663579
 O #2       0.0000000000            0.0000000000          -11.8017663579



                      Reorthonormalization gradient
                      -----------------------------

                         C #1 z     0.0000000000
                         O #2 z     0.0000000000


 C #1       0.0000000000            0.0000000000            0.0000000000
 O #2       0.0000000000            0.0000000000            0.0000000000



                     Kinetic energy integral Hessian
                     -------------------------------


           Symmetry 1

           C #1 z      O #2 z

 C #1 z    0.419493
 O #2 z   -0.419493    0.419493


           Symmetry 2

           C #1 x      O #2 x

 C #1 x   -0.263022
 O #2 x    0.263022   -0.263022


           Symmetry 3

           C #1 y      O #2 y

 C #1 y   -0.263022
 O #2 y    0.263022   -0.263022




           C #1 x      C #1 y      C #1 z      O #2 x      O #2 y      O #2 z

 C #1 x   -0.263022
 C #1 y    0.000000   -0.263022
 C #1 z    0.000000    0.000000    0.419493

 O #2 x    0.263022    0.000000    0.000000   -0.263022
 O #2 y    0.000000    0.263022    0.000000    0.000000   -0.263022
 O #2 z    0.000000    0.000000   -0.419493    0.000000    0.000000    0.419493




                   Nuclear attraction integral Hessian
                   -----------------------------------


           Symmetry 1

           C #1 z      O #2 z

 C #1 z   -6.982583
 O #2 z    6.982583   -6.982583


           Symmetry 2

           C #1 x      O #2 x

 C #1 x    5.565048
 O #2 x   -5.565048    5.565048


           Symmetry 3

           C #1 y      O #2 y

 C #1 y    5.565048
 O #2 y   -5.565048    5.565048




           C #1 x      C #1 y      C #1 z      O #2 x      O #2 y      O #2 z

 C #1 x    5.565048
 C #1 y    0.000000    5.565048
 C #1 z    0.000000    0.000000   -6.982583

 O #2 x   -5.565048    0.000000    0.000000    5.565048
 O #2 y    0.000000   -5.565048    0.000000    0.000000    5.565048
 O #2 z    0.000000    0.000000    6.982583    0.000000    0.000000   -6.982583




                Highest order reorthonormalization Hessian
                ------------------------------------------


           Symmetry 1

           C #1 z      O #2 z

 C #1 z    0.000000
 O #2 z    0.000000    0.000000


           Symmetry 2

           C #1 x      O #2 x

 C #1 x    0.000000
 O #2 x    0.000000    0.000000


           Symmetry 3

           C #1 y      O #2 y

 C #1 y    0.000000
 O #2 y    0.000000    0.000000




           C #1 x      C #1 y      C #1 z      O #2 x      O #2 y      O #2 z




                Electronic contributions to dipole moment
                -----------------------------------------

                               au             Debye

                    z     -0.73776126     -1.87520240

  Conversion factor used: 1 a.u. =   2.54174691 Debye 



   Electronic contributions to static part of dipole moment derivatives
   --------------------------------------------------------------------


                     Total dipole moment derivatives
                     -------------------------------


           Symmetry 1
                              Ez

               C #1 z    -5.64326047
               O #2 z    -8.35673953

           Symmetry 2
                              Ex

               C #1 x    -5.69251168
               O #2 x    -8.30748832

           Symmetry 3
                              Ey

               C #1 y    -5.69251168
               O #2 y    -8.30748832



                       Ex          Ey          Ez

      C #1    x   -5.692512    0.000000    0.000000
      C #1    y    0.000000   -5.692512    0.000000
      C #1    z    0.000000    0.000000   -5.643260

      O #2    x   -8.307488    0.000000    0.000000
      O #2    y    0.000000   -8.307488    0.000000
      O #2    z    0.000000    0.000000   -8.356740

 Evaluation of 1e integral derivatives required    1.76 seconds.
                    8815  records have been written to the Sort file.
  Total length of Sort file :             180513570  words.
 Evaluation of 2el integral derivatives

                      Two-electron integral gradient
                      ------------------------------

                         C #1 z    -6.4477427918
                         O #2 z     6.4477427918


 C #1       0.0000000000            0.0000000000           -6.4477427918
 O #2       0.0000000000            0.0000000000            6.4477427918


 Evaluation of 2e integral derivatives required  620.30 seconds.

                            Molecular gradient
                            ------------------

                         C #1 z     0.5090404955
                         O #2 z    -0.5090404955


 C #1       0.0000000000            0.0000000000            0.5090404955
 O #2       0.0000000000            0.0000000000           -0.5090404955


  Molecular gradient norm 0.720E+00

                            Molecular hessian
                            -----------------


           Symmetry 1

           C #1 z      O #2 z

 C #1 z    8.097598
 O #2 z   -8.097598    8.097598


           Symmetry 2

           C #1 x      O #2 x

 C #1 x    9.970659
 O #2 x   -9.970659    9.970659


           Symmetry 3

           C #1 y      O #2 y

 C #1 y    9.970659
 O #2 y   -9.970659    9.970659




           C #1 x      C #1 y      C #1 z      O #2 x      O #2 y      O #2 z

 C #1 x    9.970659
 C #1 y    0.000000    9.970659
 C #1 z    0.000000    0.000000    8.097598

 O #2 x   -9.970659    0.000000    0.000000    9.970659
 O #2 y    0.000000   -9.970659    0.000000    0.000000    9.970659
 O #2 z    0.000000    0.000000   -8.097598    0.000000    0.000000    8.097598




                           Total dipole moment
                           -------------------

                               au             Debye

                    z      0.57540969      1.46254581

  Conversion factor used: 1 a.u. =   2.54174691 Debye 



                     Total dipole moment derivatives
                     -------------------------------


           Symmetry 1
                              Ez

               C #1 z     0.43880875
               O #2 z    -0.43880875

           Symmetry 2
                              Ex

               C #1 x     0.18985779
               O #2 x    -0.18985779

           Symmetry 3
                              Ey

               C #1 y     0.18985779
               O #2 y    -0.18985779



                       Ex          Ey          Ez

      C #1    x    0.189858    0.000000    0.000000
      C #1    y    0.000000    0.189858    0.000000
      C #1    z    0.000000    0.000000    0.438809

      O #2    x   -0.189858    0.000000    0.000000
      O #2    y    0.000000   -0.189858    0.000000
      O #2    z    0.000000    0.000000   -0.438809

 @CHECKOUT-I, Total execution time (CPU/WALL):      622.04/     110.87 seconds.
--executable xvdint finished with status     0 in      111.13 seconds (walltime).
 --invoking executable--
/nfs/workspaces/public/cfour_mpi/bin/xjoda
  @GTFLGS-I, Hessian will be transformed to curvilinear coordinates.
  @GTFLGS-I, Hessian will be transformed to curvilinear coordinates.
  igrd and ihes are                      0                     1
  gradient from JOBARC 
   0.000000000000000   0.000000000000000   0.509040495490825
   0.000000000000000   0.000000000000000  -0.509040495490825
 
  @PROJFCM-I, Projecting force constant matrix onto totally symmetric subspace.
  Largest difference between matrix elements of symmetrized
  and unsymmetrized FCM :     0.1065814104E-12.
  read isotopes from ZMAT file 
 
  Summary of diagonal Born-Oppenheimer correction at the correlated level
  The total diagonal Born-Oppenheimer correction (DBOC) is:      0.0038671433 a.u.
  The total diagonal Born-Oppenheimer correction (DBOC) is:        848.739842 cm-1
  The total diagonal Born-Oppenheimer correction (DBOC) is:            10.153 kJ/mole
  hellooooooo 
  readis is  F
 
 @CHECKOUT-I, Total execution time (CPU/WALL):        0.02/       0.13 seconds.
--executable xjoda finished with status     0 in        0.27 seconds (walltime).
  The final electronic energy is      -113.014503714174467 a.u. 
  This computation required                         5256.63 seconds (walltime).
