 --invoking executable--
/nfs/workspaces/public/cfour_mpi/bin/xjoda


   *************************************************************************
         <<<     CCCCCC     CCCCCC   |||     CCCCCC     CCCCCC   >>>
       <<<      CCC        CCC       |||    CCC        CCC         >>>
      <<<      CCC        CCC        |||   CCC        CCC            >>>
    <<<        CCC        CCC        |||   CCC        CCC              >>>
      <<<      CCC        CCC        |||   CCC        CCC            >>>
       <<<      CCC        CCC       |||    CCC        CCC         >>>
         <<<     CCCCCC     CCCCCC   |||     CCCCCC     CCCCCC   >>>
   *************************************************************************

     ****************************************************************
     * CFOUR Coupled-Cluster techniques for Computational Chemistry *
     ****************************************************************
 

   Department of Chemistry                Institut fuer Physikalische Chemie
   University of Florida                  Universitaet Mainz
   Gainesville, FL 32611, USA             D-55099 Mainz, Germany

   Department of Chemistry                Fakultaet fuer Chemie und Biowiss.
   Johns Hopkins University               Karlsruher Institut fuer Technologie
   Baltimore, MD 21218, USA               D-76131 Karlsruhe, Germany

   Department of Chemistry                Department of Physical Chemistry
   Southern Methodist University          Eotvos Lorand University
   Dallas, TX 75275, USA                  H-1053 Budapest, Hungary

 
                       Version 2.1
 
                     vincent.theory.phys.ucl.ac.uk                     
                     Sun  2 Mar 03:36:35 GMT 2025                      
                     integer*8 version is running
 
********************************************************************************
*                          Input from ZMAT file                                *
********************************************************************************
Carbon Monoxide DBOC calculation                                                
C                                                                               
O 1 r                                                                           
                                                                                
r=1.210344827586207                                                             
                                                                                
                                                                                
*CFOUR(CALC=CCSD,BASIS=AUG-PCVQZ,SCF_CONV=10                                    
CC_CONV=14,DBOC=ON,MEMORY=500000000                                             
ZFIELD=200)                                                                     
                                                                                
%isotopes                                                                       
12                                                                              
18                                                                              
********************************************************************************
  @GTFLGS-I, Hessian will be transformed to curvilinear coordinates.
    -------------------------------------------------------------------
                    CFOUR Control Parameters 
    -------------------------------------------------------------------
        External           Internal           Value            Units
          Name               Name
    -------------------------------------------------------------------
       ABCDTYPE             IABCDT         STANDARD    [  0]    ***   
       ANHARMONIC           IANHAR         OFF         [  0]    ***   
       ANH_ALGORIT          IANALG         STANDARD    [  0]    ***   
       ANH_DERIVAT          IANDER         SECOND      [  1]    ***   
       ANH_MODE             ANHMOD         VIBRATION   [  0]    ***   
       ANH_STEPSIZ          ICUBST             50000          x 10-6  
       ANH_SYMMETR          IANHSM         ABELIAN     [  0]    ***   
       AO_LADDERS           IAOLAD         SINGLEPASS  [  1]    ***   
       AV_SCF               IAVSCF         OFF         [  0]    ***   
       BASIS                IBASIS         AUG-PCVQZ   [ 52]    ***   
       BOTHVECTORS          BOTHVC         OFF         [  0]    ***   
       BOX_POTENT           IPIAB          OFF         [  0]    ***   
       BREIT                IBREIT         OFF         [  0]    ***   
       BRUCK_CONV           IBRTOL          10D-  4             ***   
       BRUECKNER            IBRKNR         OFF         [  0]    ***   
       BUFFERSIZE           IBUFFS              4096            ***   
       CACHE_RECS           ICHREC             10               ***   
       CALCLEVEL            ICLLVL         CCSD        [ 10]    ***   
       CCORBOPT             ICCORB         OFF         [  0]  x 0.01  
       CC_CONV              ICCCNV          10D- 14             ***   
       CC_EXPORDER          ICCEOR              5               ***   
       CC_EXTRAPOL          ICCEXT         DIIS        [  1]    ***   
       CC_GUESS             ICCGES         MP2         [  0]    ***   
       CC_MAXCYC            ICCCYC            100              cycles 
       CC_PROGRAM           ICCPRO         VCC         [  0]    ***   
       CHARGE               ICHRGE              0               ***   
       CHOLESKY             ICHOLE         OFF         [  0]    ***   
       CIS_CONV             ICISTL              5               ***   
       COMM_SIZE            IPSIZE            ***               ***   
       CONSTANT             ICONST         OLD         [  1]    ***   
       CONTINUUM            ICONTU         NONE        [  0]    ***   
       CONTRACTION          ICNTYP         GENERAL     [  1]    ***   
       COORDINATES          ICOORD         INTERNAL    [  0]    ***   
       CPHF_CONVER          ICPHFT          10D- 16             ***   
       CPHF_MAXCYC          ICPHFC             64              cycles 
       CUBIC                ICUBIC         OFF         [  0]    ***   
       CURVILINEAR          ICURVY         ON          [  1]    ***   
       DBOC                 IDBOC          ON          [  1]    ***   
       DCT                  IDCT           OFF         [  0]    ***   
       DERIV_LEV            IDRLVL         SECOND      [  2]    ***   
       DEVMEM_SIZE          IDVMEM          50000000           MByte  
       DIAG_MRCC            IEOMST          10D-  0             ***   
       DIFF_TYPE            IDIFTY         RELAXED     [  0]    ***   
       DIRECT               IDIRCT         OFF         [  0]    ***   
       DROPMO               IDRPMO      NONE         
       ECP                  IECP           OFF         [  0]    ***   
       EIGENVECTOR          IVEC                1               ***   
       EL_ANHARM            IELANH         OFF         [  0]    ***   
       EOMFOLLOW            IEOMSR         ENERGY      [  0]    ***   
       EOMIP                IEOMIP         OFF         [  0]    ***   
       EOMLEVEL             HBARFM         SAME        [  0]    ***   
       EOM_MRCC             IMRCCE         NEW         [  1]    ***   
       EOM_NONIT            EOMNON         OFF         [  0]    ***   
       EOM_NSING            IEOMSI          10D-  0             ***   
       EOM_NSTATES          IMRCCD         DAVIDSON    [  0]    ***   
       EOM_NTRIP            IEOMTR          10D-  0             ***   
       EOM_ORDER            IEXORD         ENERGY      [  0]    ***   
       EOM_PROPSTA          IEOMST              0               ***   
       ESTATE_CONV          IEXTOL          10D-  5             ***   
       ESTATE_DIAG          IEXDIG         ITERATIVE   [  0]    ***   
       ESTATE_LOCK          IESLOC         ON          [  1]    ***   
       ESTATE_MAXC          IEXMXC             40               ***   
       ESTATE_PROP          IEXPRP         OFF         [  0]    ***   
       EVAL_HESS            IRECAL              0            # of cyc.
       EXCITATION           IEXCIT              0               ***   
       EXCITE               IEXCIT         NONE        [  0]    ***   
       EXTERN_POT           IEXPOT         OFF         [  0]    ***   
       FCGRADNEW            IFCGNW         OFF         [  0]    ***   
       FC_FIELD             IFINFC              0             x 10-6  
       FD_CALTYPE           IFDCAL         GRADONLY    [  0]    ***   
       FD_PROJECT           IFDPRJ         OFF         [  1]    ***   
       FD_STEPSIZE          IDISFD              0            10-4 bohr
       FD_USEGROUP          IFDGRP         FULL        [  0]    ***   
       FILE_RECSIZ          IFLREC              4096           words  
       FINITE_PERT          IFIPER              0             x 10-6  
       FIXGEOM              IFIXGM         OFF         [  0]    ***   
       FOCK                 IFOCK          AO          [  1]    ***   
       FREQ_ALGORI          IVIALG         STANDARD    [  0]    ***   
       FROZEN_CORE          IFROCO         OFF         [  0]    ***   
       GAMMA_ABCD           IGABCD         STORE       [  0]    ***   
       GAMMA_ABCI           IGABCI         STORE       [  0]    ***   
       GENBAS_1             IGNBS1              0               ***   
       GENBAS_2             IGNBS2              0               ***   
       GENBAS_3             IGNBS3              0               ***   
       GENBAS_4             IGNBS4              0               ***   
       GEO_CONV             ICONTL              5              H/bohr 
       GEO_MAXCYC           IOPTCY             50               ***   
       GEO_MAXSTEP          IMXSTP            300            millibohr
       GEO_METHOD           INR            SINGLE_POINT[  5]    ***   
       GIAO                 IGIAO          OFF         [  1]    ***   
       GIMIC                IGIMIC         OFF         [  0]    ***   
       GRID                 IGRID          OFF         [  0]    ***   
       GRID_ALGO            IGALGO         SERIAL      [  0]    ***   
       GUESS                IGUESS         MOREAD      [  0]    ***   
       HBAR                 IHBAR          OFF         [  0]    ***   
       HESS_TYPE            IHESTP         SCF         [  0]    ***   
       HF2_FILE             IHF2Fl         USE         [  1]    ***   
       HFSTABILITY          ISTABL         OFF         [  0]    ***   
       INCORE               INCORE         OFF         [  0]    ***   
       INPUT_MRCC           IMRCC          ON          [  1]    ***   
       INTEGRALS            INTTYP         VMOL        [  1]    ***   
       JODA_PRINT           IJPRNT              0               ***   
       KEYWORD_OUT          IDMPKW         NO          [  0]    ***   
       LINDEP_TOL           ILINDP              8               ***   
       LINEQ_CONV           IZTACN          10D-  7           cycles  
       LINEQ_EXPOR          ILMAXD              5               ***   
       LINEQ_MAXCY          ILMAXC            100               ***   
       LINEQ_TYPE           ILTYPE         DIIS        [  1]    ***   
       LOCK_ORBOCC          ILOCOC         OFF         [  0]    ***   
       MEMORY_SIZE          IMEMSZ         500000000           words  
       MEM_UNIT             IMEMU          INTEGERWORDS[  0]    ***   
       MRCC                 IMRCCC         OFF         [  0]    ***   
       MULTIPLICTY          IMULTP              1               ***   
       NACOUPLING           IVCOUP         OFF         [  0]    ***   
       NEGEVAL              IDIE           ABORT       [  0]    ***   
       NEWNORM              INEWNO         OFF         [  0]    ***   
       NON-HF               INONHF         OFF         [  0]    ***   
       NTOP_TAMP            ITOPT2             15               ***   
       NUC_MODEL            INUCMO         POINT       [  0]    ***   
       OCCUPATION           IOCCU   ESTIMATED BY SCF 
       OPEN-SHELL           IOPEN          SPIN-ORBITAL[  0]    ***   
       OPTVIB               IOPTVB         OFF         [  0]    ***   
       ORBITALS             IORBTP         STANDARD    [  0]    ***   
       PARALLEL             IPARAL         ON          [  1]    ***   
       PARA_INT             IPINTS         ON          [  1]    ***   
       PARA_PRINT           IPPRIN              0               ***   
       PERT_ORB             IPTORB         STANDARD    [  0]    ***   
       POINTS               IGRDFD              0               ***   
       PRINT                IPRNT               0               ***   
       PROPS                IPROPS         OFF         [  0]    ***   
       PROP_INTEGR          IINTYP         INTERNAL    [  0]    ***   
       PSI                  IPSI           OFF         [  0]    ***   
       QC_ALG               IQCALG         FLM         [  0]    ***   
       QC_LINALG            IQCLIN         TRIDIAG     [  2]    ***   
       QC_MAXCYC            IQCMAX          10D-100           cycles  
       QC_MAXSCFCY          IQCMSC          10D- 15           cycles  
       QC_RTRUST            IQCRTR          10D-  0           x 10-3  
       QC_SKIPSCF           IQCSKI         OFF         [  0]    ***   
       QC_START             IQCSTA          10D-  1             ***   
       QRHFGUESS            IQGUES         OFF         [  0]    ***   
       QUARTIC              IQUART         OFF         [  0]    ***   
       RAMAN_INT            IRAMIN         OFF         [  0]    ***   
       RAMAN_ORB            IRAMRE         UNRELAXED   [  0]    ***   
       RDO                  IRDOFM         ON          [  1]    ***   
       REDUCE_REPR          REDREP         Ir          [  0]    ***   
       REFERENCE            IREFNC         RHF         [  0]    ***   
       RELATIVIST           IRELAT         OFF         [  0]    ***   
       RELAX_DENS           IRDENS         ON          [  1]    ***   
       RESET_FLAGS          IRESET         OFF         [  0]    ***   
       RESTART_CC           ICCRES         OFF         [  0]    ***   
       ROT_EVEC             ROTVEC              0               ***   
       SAVE_INTS            ISVINT         OFF         [  0]    ***   
       SCALE_ON             ISTCRT              0               ***   
       SCF_CONV             ISCFCV          10D- 10             ***   
       SCF_DAMPING          IDAMP               0             x 10-3  
       SCF_EXPORDE          IRPPOR              6               ***   
       SCF_EXPSTAR          IRPPLS              8               ***   
       SCF_EXTRAPO          IRPP           ON          [  1]    ***   
       SCF_MAXCYC           ISCFCY            150              cycles 
       SCF_NOSTOP           ISCFST         OFF         [  0]    ***   
       SCF_PRINT            ISCFPR              0               ***   
       SCF_PROG             ISCFPR         SCF         [  0]    ***   
       SD_FIELD             IFINSD              0             x 10-6  
       SOPERT               IPERSO         OFF         [  0]    ***   
       SPHERICAL            IDFGHI         ON          [  1]    ***   
       SPINORBIT            ISOCAL         OFF         [  0]    ***   
       SPINROTATIO          ISRCON         OFF         [  0]    ***   
       SPIN_FLIP            ISPFLP         OFF         [  0]    ***   
       SPIN_ORBIT           ISPORB         OFF         [  0]    ***   
       SPIN_SCAL            ISCSMP         OFF         [  0]    ***   
       STEEPSCALE           ISTPSC              1000          x 10-3  
       SUBGROUP             ISUBGP         DEFAULT     [  0]    ***   
       SUBGRPAXIS           ISBXYZ         X           [  0]    ***   
       SYMMETRY             ISYM           ON          [  0]    ***   
       SYM_CHECK            ISYMCK         OVERRIDE    [  1]    ***   
       T3_EXTRAPOL          IT3EXT         OFF         [  0]    ***   
       T4_EXTRAPOL          IT4EXP         OFF         [  0]    ***   
       TAMP_SUM             IEVERY              5               ***   
       TESTSUITE            ITESTS         OFF         [  0]    ***   
       THERMOCH             ITHERM         OFF         [  0]    ***   
       TOL_CHOLESK          ITOLCH          10D-  4             ***   
       TRANGRAD             IRESRM         OFF         [  0]    ***   
       TRANS_INV            ITRAIN         IGNORE      [  1]    ***   
       TREAT_PERT           ITREAT         SIMULTANEOUS[  0]    ***   
       TRIP_ALGORI          ITRALG         NORMAL      [  0]    ***   
       UIJ_THRESHO          IUIJTH              1               ***   
       UNITS                IUNITS         ANGSTROM    [  0]    ***   
       UNOS                 IUNOS          OFF         [  0]    ***   
       UPDATE_HESS          IHUPDT         ON          [  1]    ***   
       VIBPHASE             ISETPH         STANDARD    [  0]    ***   
       VIBRATION            IVIB           ANALYTIC    [  1]    ***   
       VIB_ALGORIT          IGEALG         STANDARD    [  0]    ***   
       VNATORB              IVNORB         OFF         [  0]    ***   
       VTRAN                IVTRAN         FULL/PARTIAL[  0]    ***   
       XFIELD               IXEFLD              0             x 10-6  
       XFORM_TOL            IXFTOL          10D- 11             ***   
       YFIELD               IYEFLD              0             x 10-6  
       ZFIELD               IZEFLD            200             x 10-6  
       ZSCALE_EXP           IZEXPS         OFF         [  0]    ***   
    -------------------------------------------------------------------
   2 entries found in Z-matrix 
   Job Title : Carbon Monoxide DBOC calculation                                                
   There are  1 unique internal coordinates.
   Of these,  0 will be optimized.
   User supplied Z-matrix: 
--------------------------------------------------------------------------------
       SYMBOL    BOND      LENGTH    ANGLE     ANGLE     DIHED     ANGLE
                  TO      (ANGST)    WRT      (DEG)      WRT      (DEG)
--------------------------------------------------------------------------------
        C    
        O          1         r    
                  *Initial values for internal coordinates* 
                      Name             Value
                        r               1.2103448276
--------------------------------------------------------------------------------
  read isotopes from ZMAT file 
   Rotational constants (in cm-1): 
          1.5982839042             1.5982839042
   Rotational constants (in MHz): 
      47915.3527346734         47915.3527346734
********************************************************************************
   The full molecular point group is CXv .
   The largest Abelian subgroup of the full molecular point group is C2v .
   The computational point group is C2v .
********************************************************************************
--------------------------------------------------------------------------------
   Analysis of internal coordinates specified by Z-matrix 
--------------------------------------------------------------------------------
   *The nuclear repulsion energy is   20.986168752136749 a.u.
   *There is   1 degree of freedom within the tot. symm. molecular subspace.
   *Z-matrix requests optimization of   0 coordinates.
   *The optimization is constrained.
   *The following   1 parameters can have non-zero 
    derivatives within the totally symmetric subspace:
             r    [ 1]
   *The following   0 parameters are to be optimized:

   *The following coordinates must be varied in an  unconstrained optimization.
             r    [ 1]
--------------------------------------------------------------------------------


 ----------------------------------------------------------------
         Coordinates used in calculation (QCOMP) 
 ----------------------------------------------------------------
 Z-matrix   Atomic            Coordinates (in bohr)
  Symbol    Number           X              Y              Z
 ----------------------------------------------------------------
     C         6        -0.00000000     0.00000000     1.37230682
     O         8         0.00000000     0.00000000    -0.91491390
 ----------------------------------------------------------------
 
   Interatomic distance matrix (Angstroms) 
 
                 C             O    
                [ 1]        [ 2]
  C    [ 1]     0.00000
  O    [ 2]     1.21035     0.00000
 rotcon2
   Rotational constants (in cm-1): 
          1.5982839042             0.0000000000
   Rotational constants (in MHz): 
      47915.3527346734             0.0000000000
  ECPDATA file not present.   Using default ECPDATA. 
  @GTFLGS-I, Hessian will be transformed to curvilinear coordinates.
  There are  218 basis functions.
 @CHECKOUT-I, Total execution time (CPU/WALL):        0.24/       0.54 seconds.
--executable xjoda finished with status     0 in        0.56 seconds (walltime).
 --invoking executable--
/nfs/workspaces/public/cfour_mpi/bin/xvmol
 SERIAL VERSION OF MOLECULE STARTED
********************************************************************************
                    INPUT FROM MOL FILE
********************************************************************************
INTGRL        1    0    1    0    0    0    0    0    0                         
         *** CFOUR Program System (Release V0.1) ***                            
Carbon Monoxide DBOC calculation                                                
    2    2 X  Y       0.10E-08              0    0                              
   9999.00      3.00                                                            
          6.00000000    1    5    1    1    1    1    1                         
C #1  -0.000000000000000   0.000000000000000   1.372306823465586                
   16    9                                                                      
   33980.0000000000       9.100000000000000E-005 -1.900000000000000E-005        
  0.000000000000000E+000  0.000000000000000E+000  0.000000000000000E+000        
  0.000000000000000E+000  0.000000000000000E+000  0.000000000000000E+000        
  0.000000000000000E+000                                                        
   5089.00000000000       7.040000000000000E-004 -1.510000000000000E-004        
  0.000000000000000E+000  0.000000000000000E+000  0.000000000000000E+000        
  0.000000000000000E+000  0.000000000000000E+000  0.000000000000000E+000        
  0.000000000000000E+000                                                        
   1157.00000000000       3.693000000000000E-003 -7.850000000000000E-004        
  0.000000000000000E+000  0.000000000000000E+000  0.000000000000000E+000        
  0.000000000000000E+000  0.000000000000000E+000  0.000000000000000E+000        
  0.000000000000000E+000                                                        
   326.600000000000       1.536000000000000E-002 -3.324000000000000E-003        
  0.000000000000000E+000  0.000000000000000E+000  0.000000000000000E+000        
  0.000000000000000E+000  0.000000000000000E+000  0.000000000000000E+000        
  0.000000000000000E+000                                                        
   106.100000000000       5.292900000000000E-002 -1.151200000000000E-002        
  0.000000000000000E+000  0.000000000000000E+000  0.000000000000000E+000        
  0.000000000000000E+000  0.000000000000000E+000  0.000000000000000E+000        
  0.000000000000000E+000                                                        
   38.1100000000000       0.147043000000000      -3.416000000000000E-002        
  0.000000000000000E+000  0.000000000000000E+000  0.000000000000000E+000        
  0.000000000000000E+000  0.000000000000000E+000  0.000000000000000E+000        
  0.000000000000000E+000                                                        
   14.7500000000000       0.305631000000000      -7.717300000000001E-002        
  0.000000000000000E+000  0.000000000000000E+000  0.000000000000000E+000        
  0.000000000000000E+000  0.000000000000000E+000  0.000000000000000E+000        
  0.000000000000000E+000                                                        
   6.03500000000000       0.399345000000000      -0.141493000000000             
  0.000000000000000E+000  0.000000000000000E+000  0.000000000000000E+000        
  0.000000000000000E+000  0.000000000000000E+000  0.000000000000000E+000        
  0.000000000000000E+000                                                        
   2.53000000000000       0.217051000000000      -0.118019000000000             
  0.000000000000000E+000  0.000000000000000E+000  0.000000000000000E+000        
  0.000000000000000E+000  0.000000000000000E+000  0.000000000000000E+000        
  0.000000000000000E+000                                                        
  0.735500000000000       1.589400000000000E-002  0.273806000000000             
   1.00000000000000       0.000000000000000E+000  0.000000000000000E+000        
  0.000000000000000E+000  0.000000000000000E+000  0.000000000000000E+000        
  0.000000000000000E+000                                                        
  0.290500000000000      -3.084000000000000E-003  0.586510000000000             
  0.000000000000000E+000   1.00000000000000       0.000000000000000E+000        
  0.000000000000000E+000  0.000000000000000E+000  0.000000000000000E+000        
  0.000000000000000E+000                                                        
  0.111100000000000       9.779999999999999E-004  0.285430000000000             
  0.000000000000000E+000  0.000000000000000E+000   1.00000000000000             
  0.000000000000000E+000  0.000000000000000E+000  0.000000000000000E+000        
  0.000000000000000E+000                                                        
   7.21600000000000       0.000000000000000E+000  0.000000000000000E+000        
  0.000000000000000E+000  0.000000000000000E+000  0.000000000000000E+000        
   1.00000000000000       0.000000000000000E+000  0.000000000000000E+000        
  0.000000000000000E+000                                                        
   19.5700000000000       0.000000000000000E+000  0.000000000000000E+000        
  0.000000000000000E+000  0.000000000000000E+000  0.000000000000000E+000        
  0.000000000000000E+000   1.00000000000000       0.000000000000000E+000        
  0.000000000000000E+000                                                        
   53.0730000000000       0.000000000000000E+000  0.000000000000000E+000        
  0.000000000000000E+000  0.000000000000000E+000  0.000000000000000E+000        
  0.000000000000000E+000  0.000000000000000E+000   1.00000000000000             
  0.000000000000000E+000                                                        
  4.145000000000000E-002  0.000000000000000E+000  0.000000000000000E+000        
  0.000000000000000E+000  0.000000000000000E+000  0.000000000000000E+000        
  0.000000000000000E+000  0.000000000000000E+000  0.000000000000000E+000        
   1.00000000000000                                                             
   10    8                                                                      
   34.5100000000000       5.378000000000000E-003  0.000000000000000E+000        
  0.000000000000000E+000  0.000000000000000E+000  0.000000000000000E+000        
  0.000000000000000E+000  0.000000000000000E+000  0.000000000000000E+000        
   7.91500000000000       3.613200000000000E-002  0.000000000000000E+000        
  0.000000000000000E+000  0.000000000000000E+000  0.000000000000000E+000        
  0.000000000000000E+000  0.000000000000000E+000  0.000000000000000E+000        
   2.36800000000000       0.142493000000000       0.000000000000000E+000        
  0.000000000000000E+000  0.000000000000000E+000  0.000000000000000E+000        
  0.000000000000000E+000  0.000000000000000E+000  0.000000000000000E+000        
  0.813200000000000       0.342150000000000        1.00000000000000             
  0.000000000000000E+000  0.000000000000000E+000  0.000000000000000E+000        
  0.000000000000000E+000  0.000000000000000E+000  0.000000000000000E+000        
  0.289000000000000       0.463864000000000       0.000000000000000E+000        
   1.00000000000000       0.000000000000000E+000  0.000000000000000E+000        
  0.000000000000000E+000  0.000000000000000E+000  0.000000000000000E+000        
  0.100700000000000       0.250028000000000       0.000000000000000E+000        
  0.000000000000000E+000   1.00000000000000       0.000000000000000E+000        
  0.000000000000000E+000  0.000000000000000E+000  0.000000000000000E+000        
   8.18200000000000       0.000000000000000E+000  0.000000000000000E+000        
  0.000000000000000E+000  0.000000000000000E+000   1.00000000000000             
  0.000000000000000E+000  0.000000000000000E+000  0.000000000000000E+000        
   24.1860000000000       0.000000000000000E+000  0.000000000000000E+000        
  0.000000000000000E+000  0.000000000000000E+000  0.000000000000000E+000        
   1.00000000000000       0.000000000000000E+000  0.000000000000000E+000        
   71.4940000000000       0.000000000000000E+000  0.000000000000000E+000        
  0.000000000000000E+000  0.000000000000000E+000  0.000000000000000E+000        
  0.000000000000000E+000   1.00000000000000       0.000000000000000E+000        
  3.218000000000000E-002  0.000000000000000E+000  0.000000000000000E+000        
  0.000000000000000E+000  0.000000000000000E+000  0.000000000000000E+000        
  0.000000000000000E+000  0.000000000000000E+000   1.00000000000000             
    6    6                                                                      
   1.84800000000000        1.00000000000000       0.000000000000000E+000        
  0.000000000000000E+000  0.000000000000000E+000  0.000000000000000E+000        
  0.000000000000000E+000                                                        
  0.649000000000000       0.000000000000000E+000   1.00000000000000             
  0.000000000000000E+000  0.000000000000000E+000  0.000000000000000E+000        
  0.000000000000000E+000                                                        
  0.228000000000000       0.000000000000000E+000  0.000000000000000E+000        
   1.00000000000000       0.000000000000000E+000  0.000000000000000E+000        
  0.000000000000000E+000                                                        
   8.65600000000000       0.000000000000000E+000  0.000000000000000E+000        
  0.000000000000000E+000   1.00000000000000       0.000000000000000E+000        
  0.000000000000000E+000                                                        
   33.2130000000000       0.000000000000000E+000  0.000000000000000E+000        
  0.000000000000000E+000  0.000000000000000E+000   1.00000000000000             
  0.000000000000000E+000                                                        
  7.660000000000000E-002  0.000000000000000E+000  0.000000000000000E+000        
  0.000000000000000E+000  0.000000000000000E+000  0.000000000000000E+000        
   1.00000000000000                                                             
    4    4                                                                      
   1.41900000000000        1.00000000000000       0.000000000000000E+000        
  0.000000000000000E+000  0.000000000000000E+000                                
  0.485000000000000       0.000000000000000E+000   1.00000000000000             
  0.000000000000000E+000  0.000000000000000E+000                                
   24.6940000000000       0.000000000000000E+000  0.000000000000000E+000        
   1.00000000000000       0.000000000000000E+000                                
  0.187000000000000       0.000000000000000E+000  0.000000000000000E+000        
  0.000000000000000E+000   1.00000000000000                                     
    2    2                                                                      
   1.01100000000000        1.00000000000000       0.000000000000000E+000        
  0.424000000000000       0.000000000000000E+000   1.00000000000000             
          8.00000000    1    5    1    1    1    1    1                         
O #2   0.000000000000000   0.000000000000000  -0.914913896376990                
   16    9                                                                      
   61420.0000000000       9.000000000000001E-005 -2.000000000000000E-005        
  0.000000000000000E+000  0.000000000000000E+000  0.000000000000000E+000        
  0.000000000000000E+000  0.000000000000000E+000  0.000000000000000E+000        
  0.000000000000000E+000                                                        
   9199.00000000000       6.980000000000001E-004 -1.590000000000000E-004        
  0.000000000000000E+000  0.000000000000000E+000  0.000000000000000E+000        
  0.000000000000000E+000  0.000000000000000E+000  0.000000000000000E+000        
  0.000000000000000E+000                                                        
   2091.00000000000       3.664000000000000E-003 -8.290000000000000E-004        
  0.000000000000000E+000  0.000000000000000E+000  0.000000000000000E+000        
  0.000000000000000E+000  0.000000000000000E+000  0.000000000000000E+000        
  0.000000000000000E+000                                                        
   590.900000000000       1.521800000000000E-002 -3.508000000000000E-003        
  0.000000000000000E+000  0.000000000000000E+000  0.000000000000000E+000        
  0.000000000000000E+000  0.000000000000000E+000  0.000000000000000E+000        
  0.000000000000000E+000                                                        
   192.300000000000       5.242300000000000E-002 -1.215600000000000E-002        
  0.000000000000000E+000  0.000000000000000E+000  0.000000000000000E+000        
  0.000000000000000E+000  0.000000000000000E+000  0.000000000000000E+000        
  0.000000000000000E+000                                                        
   69.3200000000000       0.145921000000000      -3.626100000000000E-002        
  0.000000000000000E+000  0.000000000000000E+000  0.000000000000000E+000        
  0.000000000000000E+000  0.000000000000000E+000  0.000000000000000E+000        
  0.000000000000000E+000                                                        
   26.9700000000000       0.305258000000000      -8.299200000000000E-002        
  0.000000000000000E+000  0.000000000000000E+000  0.000000000000000E+000        
  0.000000000000000E+000  0.000000000000000E+000  0.000000000000000E+000        
  0.000000000000000E+000                                                        
   11.1000000000000       0.398508000000000      -0.152090000000000             
  0.000000000000000E+000  0.000000000000000E+000  0.000000000000000E+000        
  0.000000000000000E+000  0.000000000000000E+000  0.000000000000000E+000        
  0.000000000000000E+000                                                        
   4.68200000000000       0.216980000000000      -0.115331000000000             
  0.000000000000000E+000  0.000000000000000E+000  0.000000000000000E+000        
  0.000000000000000E+000  0.000000000000000E+000  0.000000000000000E+000        
  0.000000000000000E+000                                                        
   1.42800000000000       1.759400000000000E-002  0.288979000000000             
   1.00000000000000       0.000000000000000E+000  0.000000000000000E+000        
  0.000000000000000E+000  0.000000000000000E+000  0.000000000000000E+000        
  0.000000000000000E+000                                                        
  0.554700000000000      -2.502000000000000E-003  0.586128000000000             
  0.000000000000000E+000   1.00000000000000       0.000000000000000E+000        
  0.000000000000000E+000  0.000000000000000E+000  0.000000000000000E+000        
  0.000000000000000E+000                                                        
  0.206700000000000       9.540000000000000E-004  0.277624000000000             
  0.000000000000000E+000  0.000000000000000E+000   1.00000000000000             
  0.000000000000000E+000  0.000000000000000E+000  0.000000000000000E+000        
  0.000000000000000E+000                                                        
   12.9740000000000       0.000000000000000E+000  0.000000000000000E+000        
  0.000000000000000E+000  0.000000000000000E+000  0.000000000000000E+000        
   1.00000000000000       0.000000000000000E+000  0.000000000000000E+000        
  0.000000000000000E+000                                                        
   34.9000000000000       0.000000000000000E+000  0.000000000000000E+000        
  0.000000000000000E+000  0.000000000000000E+000  0.000000000000000E+000        
  0.000000000000000E+000   1.00000000000000       0.000000000000000E+000        
  0.000000000000000E+000                                                        
   93.8810000000000       0.000000000000000E+000  0.000000000000000E+000        
  0.000000000000000E+000  0.000000000000000E+000  0.000000000000000E+000        
  0.000000000000000E+000  0.000000000000000E+000   1.00000000000000             
  0.000000000000000E+000                                                        
  6.959000000000000E-002  0.000000000000000E+000  0.000000000000000E+000        
  0.000000000000000E+000  0.000000000000000E+000  0.000000000000000E+000        
  0.000000000000000E+000  0.000000000000000E+000  0.000000000000000E+000        
   1.00000000000000                                                             
   10    8                                                                      
   63.4200000000000       6.044000000000000E-003  0.000000000000000E+000        
  0.000000000000000E+000  0.000000000000000E+000  0.000000000000000E+000        
  0.000000000000000E+000  0.000000000000000E+000  0.000000000000000E+000        
   14.6600000000000       4.179900000000000E-002  0.000000000000000E+000        
  0.000000000000000E+000  0.000000000000000E+000  0.000000000000000E+000        
  0.000000000000000E+000  0.000000000000000E+000  0.000000000000000E+000        
   4.45900000000000       0.161143000000000       0.000000000000000E+000        
  0.000000000000000E+000  0.000000000000000E+000  0.000000000000000E+000        
  0.000000000000000E+000  0.000000000000000E+000  0.000000000000000E+000        
   1.53100000000000       0.356731000000000        1.00000000000000             
  0.000000000000000E+000  0.000000000000000E+000  0.000000000000000E+000        
  0.000000000000000E+000  0.000000000000000E+000  0.000000000000000E+000        
  0.530200000000000       0.448309000000000       0.000000000000000E+000        
   1.00000000000000       0.000000000000000E+000  0.000000000000000E+000        
  0.000000000000000E+000  0.000000000000000E+000  0.000000000000000E+000        
  0.175000000000000       0.244940000000000       0.000000000000000E+000        
  0.000000000000000E+000   1.00000000000000       0.000000000000000E+000        
  0.000000000000000E+000  0.000000000000000E+000  0.000000000000000E+000        
   14.4750000000000       0.000000000000000E+000  0.000000000000000E+000        
  0.000000000000000E+000  0.000000000000000E+000   1.00000000000000             
  0.000000000000000E+000  0.000000000000000E+000  0.000000000000000E+000        
   42.7300000000000       0.000000000000000E+000  0.000000000000000E+000        
  0.000000000000000E+000  0.000000000000000E+000  0.000000000000000E+000        
   1.00000000000000       0.000000000000000E+000  0.000000000000000E+000        
   126.140000000000       0.000000000000000E+000  0.000000000000000E+000        
  0.000000000000000E+000  0.000000000000000E+000  0.000000000000000E+000        
  0.000000000000000E+000   1.00000000000000       0.000000000000000E+000        
  5.348000000000000E-002  0.000000000000000E+000  0.000000000000000E+000        
  0.000000000000000E+000  0.000000000000000E+000  0.000000000000000E+000        
  0.000000000000000E+000  0.000000000000000E+000   1.00000000000000             
    6    6                                                                      
   3.77500000000000        1.00000000000000       0.000000000000000E+000        
  0.000000000000000E+000  0.000000000000000E+000  0.000000000000000E+000        
  0.000000000000000E+000                                                        
   1.30000000000000       0.000000000000000E+000   1.00000000000000             
  0.000000000000000E+000  0.000000000000000E+000  0.000000000000000E+000        
  0.000000000000000E+000                                                        
  0.444000000000000       0.000000000000000E+000  0.000000000000000E+000        
   1.00000000000000       0.000000000000000E+000  0.000000000000000E+000        
  0.000000000000000E+000                                                        
   14.9270000000000       0.000000000000000E+000  0.000000000000000E+000        
  0.000000000000000E+000   1.00000000000000       0.000000000000000E+000        
  0.000000000000000E+000                                                        
   57.5440000000000       0.000000000000000E+000  0.000000000000000E+000        
  0.000000000000000E+000  0.000000000000000E+000   1.00000000000000             
  0.000000000000000E+000                                                        
  0.154000000000000       0.000000000000000E+000  0.000000000000000E+000        
  0.000000000000000E+000  0.000000000000000E+000  0.000000000000000E+000        
   1.00000000000000                                                             
    4    4                                                                      
   2.66600000000000        1.00000000000000       0.000000000000000E+000        
  0.000000000000000E+000  0.000000000000000E+000                                
  0.859000000000000       0.000000000000000E+000   1.00000000000000             
  0.000000000000000E+000  0.000000000000000E+000                                
   26.4830000000000       0.000000000000000E+000  0.000000000000000E+000        
   1.00000000000000       0.000000000000000E+000                                
  0.324000000000000       0.000000000000000E+000  0.000000000000000E+000        
  0.000000000000000E+000   1.00000000000000                                     
    2    2                                                                      
   1.84600000000000        1.00000000000000       0.000000000000000E+000        
  0.714000000000000       0.000000000000000E+000   1.00000000000000             
FINISH                                                                          
 
********************************************************************************
 ONE- AND TWO-ELECTRON INTEGRALS OVER SYMMETRY-ADAPTED AOS ARE CALCULATED.

  SPHERICAL HARMONICS ARE USED.
  
  INTEGRALS LESS THAN  0.10E-13 ARE NEGLECTED.

  NUCLEAR REPULSION ENERGY :   20.9861687521 A.U.
  @MOLECU-I, ONE ELECTRON INTEGRALS (CPU/WALL):        0.06/       0.08 SECONDS.
  @TWOEL-I,    4561068 INTEGRALS OF SYMMETRY TYPE  I I I I
  @TWOEL-I,   19597705 INTEGRALS OF SYMMETRY TYPE  I J I J
  @TWOEL-I,   10326499 INTEGRALS OF SYMMETRY TYPE  I I J J
  @TWOEL-I,   14500668 INTEGRALS OF SYMMETRY TYPE  I J K L
  @TWOEL-I, TOTAL NUMBER OF 2-E INTEGRALS   48985940.
  @MOLECU-I, TWO ELECTRON INTEGRALS (CPU/WALL):      280.58/      37.26 SECONDS.
 @CHECKOUT-I, Total execution time (CPU/WALL):      280.64/      37.36 seconds.

Running with 14 threads/proc

--executable xvmol finished with status     0 in       37.40 seconds (walltime).
 --invoking executable--
/nfs/workspaces/public/cfour_mpi/bin/xvmol2ja
 @GETMEM-I,  Allocated    3814 MB of main memory.
 @CHECKOUT-I, Total execution time (CPU/WALL):        0.28/       0.08 seconds.
--executable xvmol2ja finished with status     0 in        0.10 seconds (walltime).
 --invoking executable--
/nfs/workspaces/public/cfour_mpi/bin/xvprop
 @GETMEM-I,  Allocated    3814 MB of main memory.
   Property integrals will be calculated.
    --------------------------------------------------------------
                                   Property evaluated at 
    Property type                X             Y             Z
    --------------------------------------------------------------
    Dipole moment               ----          ----          ----  
    Quadrupole moment           ----          ----          ----  
    Octopole moment             ----          ----          ----  
    Relativisitic corr.         ----          ----          ----  
    Second moment            0.0000000     0.0000000     0.0000000
    Electron density         0.0000000     0.0000000     1.3723068
    Electron density         0.0000000     0.0000000    -0.9149139
    Field gradient           0.0000000     0.0000000     1.3723068
    Field gradient           0.0000000     0.0000000    -0.9149139
    Potential                0.0000000     0.0000000     1.3723068
    Potential                0.0000000     0.0000000    -0.9149139
    --------------------------------------------------------------
 @CHECKOUT-I, Total execution time (CPU/WALL):        1.55/       1.58 seconds.
--executable xvprop finished with status     0 in        1.63 seconds (walltime).
 --invoking executable--
/nfs/workspaces/public/cfour_mpi/bin/xvscf
  There are  218 functions in the AO basis.

  There are 4 irreducible representations.

       Irrep        # of functions
         1                 86
         2                 52
         3                 52
         4                 28


  Parameters for SCF calculation: 
        SCF reference function:  RHF  
  Maximum number of iterations:  150
     Full symmetry point group: CXv 
     Computational point group: C2v 
        Initial density matrix: MOREAD                 
     SCF convergence tolerance: 10**(-10)
  DIIS convergence acceleration:  ON
          Latest start for DIIS:   8
                     DIIS order:   6

  Memory information:    2523578 words required.
  Fock matrices are constructed from AO integral file.
 @GETMEM-I,  Allocated      19 MB of main memory.
  Initialization and symmetry analysis required      0.001 seconds.

  Adding electric field perturbation to one-electron Hamiltonian.
  Field direction     : Z
  Field strength      :  0.0002000 a.u.

  @INITGES-I, Occupancies from core Hamiltonian:

          Alpha population by irrep:   5    1    1    0
           Beta population by irrep:   5    1    1    0


 total no. of electrons in initial guess :  0.000000000000000E+000
  --------------------------------------------------------------------
  Iteration         Total Energy            Largest Density Difference
  --------------------------------------------------------------------
       0            20.985985846183258              0.0000000000D+00
   current occupation vector 
     5  1  1  0
     5  1  1  0
       1           -92.349131063206826              0.1826995137D+02
   current occupation vector 
     5  1  1  0
     5  1  1  0
       2           -97.762266660451544              0.1826543480D+02
   current occupation vector 
     5  1  1  0
     5  1  1  0
       3          -103.505867802794938              0.9531863895D+01
   current occupation vector 
     5  1  1  0
     5  1  1  0
       4           -99.970776880153920              0.7315347753D+01
   current occupation vector 
     5  1  1  0
     5  1  1  0
       5          -102.625263230881075              0.6049807731D+01
   current occupation vector 
     5  1  1  0
     5  1  1  0
       6           -99.354171058575446              0.5878880419D+01
   current occupation vector 
     5  1  1  0
     5  1  1  0
       7          -102.612697604409817              0.5902022127D+01
   current occupation vector 
     5  1  1  0
     5  1  1  0
       8           -99.236306858270950              0.5896404171D+01
   current occupation vector 
     5  1  1  0
     5  1  1  0
       9          -110.115387036630224              0.4461953645D+01
   current occupation vector 
     5  1  1  0
     5  1  1  0
      10          -111.929125906784222              0.1045852425D+01
   current occupation vector 
     5  1  1  0
     5  1  1  0
      11          -112.722346248340713              0.6046745443D+00
   current occupation vector 
     5  1  1  0
     5  1  1  0
      12          -112.764606434001578              0.1553185241D+00
   current occupation vector 
     5  1  1  0
     5  1  1  0
      13          -112.765624635108097              0.3922333098D-01
   current occupation vector 
     5  1  1  0
     5  1  1  0
      14          -112.765777074906069              0.1722697799D-01
   current occupation vector 
     5  1  1  0
     5  1  1  0
      15          -112.765797551201146              0.8890091791D-02
   current occupation vector 
     5  1  1  0
     5  1  1  0
      16          -112.765797759801316              0.6464131506D-03
   current occupation vector 
     5  1  1  0
     5  1  1  0
      17          -112.765797768464367              0.1294822895D-03
   current occupation vector 
     5  1  1  0
     5  1  1  0
      18          -112.765797768775158              0.3031882335D-04
   current occupation vector 
     5  1  1  0
     5  1  1  0
      19          -112.765797768789312              0.6193006874D-05
   current occupation vector 
     5  1  1  0
     5  1  1  0
      20          -112.765797768790591              0.1061892833D-05
   current occupation vector 
     5  1  1  0
     5  1  1  0
      21          -112.765797768789540              0.1287117937D-06
   current occupation vector 
     5  1  1  0
     5  1  1  0
      22          -112.765797768789454              0.2740003979D-07
   current occupation vector 
     5  1  1  0
     5  1  1  0
      23          -112.765797768789312              0.1480162348D-07
   current occupation vector 
     5  1  1  0
     5  1  1  0
      24          -112.765797768789540              0.2919704478D-09
   current occupation vector 
     5  1  1  0
     5  1  1  0
      25          -112.765797768789653              0.1344966361D-09
   current occupation vector 
     5  1  1  0
     5  1  1  0
      26          -112.765797768789028              0.1008648720D-09
   current occupation vector 
     5  1  1  0
     5  1  1  0

  SCF has converged.

 Density matrix saved to file den.dat
 total electron number:   14.0000000000000     
     E(SCF)=      -112.765797768789170              0.7872402730D-10

  Eigenvector printing suppressed.

 @PUTMOS-I, Writing converged MOs to NEWMOS. 
 @PUTMOS-I, Symmetry   1 Full Blocks 21 Partial Blocksize   2
 @PUTMOS-I, Symmetry   2 Full Blocks 13 Partial Blocksize   0
 @PUTMOS-I, Symmetry   3 Full Blocks 13 Partial Blocksize   0
 @PUTMOS-I, Symmetry   4 Full Blocks  7 Partial Blocksize   0
 @PUTFOCK-I, Writing converged Fock matrix to NEWFOCK. 
 @PUTFOCK-I, Symmetry   1 Full Blocks 21 Partial Blocksize   2
 @PUTFOCK-I, Symmetry   2 Full Blocks 13 Partial Blocksize   0
 @PUTFOCK-I, Symmetry   3 Full Blocks 13 Partial Blocksize   0
 @PUTFOCK-I, Symmetry   4 Full Blocks  7 Partial Blocksize   0


 
  ORBITAL EIGENVALUES (ALPHA)  (1H = 27.2113834 eV)

       MO #        E(hartree)               E(eV)           FULLSYM    COMPSYM
       ----   --------------------   --------------------   -------   ---------
    1     1         -20.6667362056        -562.3704825181     SG+        A1 (1)
    2     2         -11.3965197645        -310.1150687365     SG+        A1 (1)
    3     3          -1.4668374358         -39.9146758498     SG+        A1 (1)
    4     4          -0.7981371025         -21.7184147013     SG+        A1 (1)
    5    87          -0.6067066656         -16.5093276903      PI        B1 (2)
    6   139          -0.6067066656         -16.5093276903      PI        B2 (3)
    7     5          -0.5624096922         -15.3039457625     SG+        A1 (1)
  +++++++++++++++++++++++++++++++++++++++++++++++++++++++++++++++++++++++++++++
    8    88           0.0592825123           1.6131591715      PI        B1 (2)
    9   140           0.0592825123           1.6131591715      PI        B2 (3)
   10     6           0.0611278142           1.6633723895     SG+        A1 (1)
   11     7           0.0739973716           2.0135708488     SG+        A1 (1)
   12    89           0.1207365852           3.2854095105      PI        B1 (2)
   13   141           0.1207365852           3.2854095105      PI        B2 (3)
   14     8           0.1561656762           4.2494840900     SG+        A1 (1)
   15   142           0.1664436748           4.5291626487      PI        B2 (3)
   16    90           0.1664436748           4.5291626487      PI        B1 (2)
   17     9           0.2277868677           6.1983957899      DE        A1 (1)
   18   191           0.2277868677           6.1983957899      DE        A2 (4)
   19    10           0.2283448382           6.2135789409     SG+        A1 (1)
   20    11           0.3006415909           8.1808735962     SG+        A1 (1)
   21   143           0.3129990380           8.5171368260      PI        B2 (3)
   22    91           0.3129990380           8.5171368260      PI        B1 (2)
   23    12           0.3886113118          10.5746513987     SG+        A1 (1)
   24   144           0.3953197934          10.7571984647      PI        B2 (3)
   25    92           0.3953197934          10.7571984647      PI        B1 (2)
   26    13           0.5086271371          13.8404480357     SG+        A1 (1)
   27    14           0.5393531023          14.6765440547      DE        A1 (1)
   28   192           0.5393531023          14.6765440547      DE        A2 (4)
   29    15           0.6138956076          16.7049487461     SG+        A1 (1)
   30   145           0.6247771530          17.0010506499      PI        B2 (3)
   31    93           0.6247771530          17.0010506499      PI        B1 (2)
   32    94           0.7470784743          20.3290387936      PH        B1 (2)
   33   146           0.7470784743          20.3290387936      PH        B2 (3)
   34    16           0.7650563037          20.8182404028      DE        A1 (1)
   35   193           0.7650563037          20.8182404028      DE        A2 (4)
   36    17           0.7768406588          21.1389090084     SG+        A1 (1)
   37   147           0.8137844736          22.1442013170      PI        B2 (3)
   38    95           0.8137844736          22.1442013170      PI        B1 (2)
   39    18           0.8579031474          23.3447314633     SG+        A1 (1)
   40    19           0.8762387530          23.8436686573     SG+        A1 (1)
   41   194           0.8862983732          24.1174048391      DE        A2 (4)
   42    20           0.8862983732          24.1174048391      DE        A1 (1)
   43   148           0.8875798735          24.1522762351      PI        B2 (3)
   44    96           0.8875798735          24.1522762351      PI        B1 (2)
   45   149           1.0595976211          28.8331171166      PI        B2 (3)
   46    97           1.0595976211          28.8331171166      PI        B1 (2)
   47    21           1.1488955677          31.2630377803     SG+        A1 (1)
   48   150           1.4414359652          39.2234666965      PH        B2 (3)
   49    98           1.4414359652          39.2234666965      PH        B1 (2)
   50    22           1.4456357804          39.3377494773     SG+        A1 (1)
   51   195           1.5310210148          41.6611998285      DE        A2 (4)
   52    23           1.5310210148          41.6611998285      DE        A1 (1)
   53   151           1.5648927229          42.5828958629      PI        B2 (3)
   54    99           1.5648927229          42.5828958629      PI        B1 (2)
   55    24           1.6650392286          45.3080208268     SG+        A1 (1)
   56   152           1.7433427115          47.4387669215      PI        B2 (3)
   57   100           1.7433427115          47.4387669215      PI        B1 (2)
   58   196           1.7568412867          47.8060818259      DE        A2 (4)
   59    25           1.7568412867          47.8060818259      DE        A1 (1)
   60    26           1.8006244114          48.9974812181     SG+        A1 (1)
   61   153           2.0077216961          54.6328848325      PI        B2 (3)
   62   101           2.0077216961          54.6328848325      PI        B1 (2)
   63    27           2.0875771261          56.8058615561     SG+        A1 (1)
   64   197           2.1000111022          57.1442072456      PI        A2 (4)
   65    28           2.1000111022          57.1442072456      PI        A1 (1)
   66   198           2.1802145891          59.3266550778      DE        A2 (4)
   67    29           2.1802145891          59.3266550778      DE        A1 (1)
   68   102           2.2448362217          61.0850990990      PH        B1 (2)
   69   154           2.2448362217          61.0850990990      PH        B2 (3)
   70   155           2.3079407154          62.8022596710      PI        B2 (3)
   71   103           2.3079407154          62.8022596710      PI        B1 (2)
   72    30           2.3085626496          62.8191833612     SG+        A1 (1)
   73   156           2.3334573442          63.4966024400      PH        B2 (3)
   74   104           2.3334573442          63.4966024400      PH        B1 (2)
   75   199           2.3512597852          63.9810314882      DE        A2 (4)
   76    31           2.3512597852          63.9810314882      DE        A1 (1)
   77    32           2.4817082980          67.5307159848     SG+        A1 (1)
   78   157           2.5772854253          70.1315018384      PI        B2 (3)
   79   105           2.5772854253          70.1315018384      PI        B1 (2)
   80   158           2.7627645234          75.1786446903      PI        B2 (3)
   81   106           2.7627645234          75.1786446903      PI        B1 (2)
   82    33           2.8280670984          76.9556180948     SG+        A1 (1)
   83    34           2.9393432933          79.9835972987      DE        A1 (1)
   84   200           2.9393432933          79.9835972988      DE        A2 (4)
   85    35           3.4751858795          94.5646153521     SG+        A1 (1)
   86    36           3.7113464172         100.9908702880      PI        A1 (1)
   87   201           3.7113464172         100.9908702880      PI        A2 (4)
   88   159           3.7150028820         101.0903677551      PI        B2 (3)
   89   107           3.7150028820         101.0903677551      PI        B1 (2)
   90    37           3.9180296669         106.6150074382     SG+        A1 (1)
   91   160           4.0877822490         111.2342100325      PH        B2 (3)
   92   108           4.0877822490         111.2342100325      PH        B1 (2)
   93   202           4.1858529218         113.9028487114      DE        A2 (4)
   94    38           4.1858529218         113.9028487114      DE        A1 (1)
   95   109           4.2014859068         114.3282438605      PH        B1 (2)
   96   161           4.2014859068         114.3282438605      PH        B2 (3)
   97   110           4.2015295085         114.3294303209      PI        B1 (2)
   98   162           4.2015295085         114.3294303209      PI        B2 (3)
   99    39           4.2463153187         115.5481141742     SG+        A1 (1)
  100    40           4.3463641480         118.2705812268      DE        A1 (1)
  101   203           4.3463641480         118.2705812268      DE        A2 (4)
  102    41           4.4263308288         120.4465852387     SG+        A1 (1)
  103   163           4.8146902396         131.0143820617      PI        B2 (3)
  104   111           4.8146902396         131.0143820617      PI        B1 (2)
  105   112           5.0008999414         136.0814056501      PI        B1 (2)
  106   164           5.0008999414         136.0814056501      PI        B2 (3)
  107    42           5.0901710990         138.5105973453      DE        A1 (1)
  108   204           5.0901710990         138.5105973453      DE        A2 (4)
  109    43           5.1271317081         139.5163466510     SG+        A1 (1)
  110    44           5.5597302108         151.2879503677     SG+        A1 (1)
  111   113           5.7196427304         155.6393912475      PI        B1 (2)
  112   165           5.7196427304         155.6393912475      PI        B2 (3)
  113   205           5.8885755331         160.2362865106      PI        A2 (4)
  114    45           5.8885755331         160.2362865106      PI        A1 (1)
  115   114           6.0636027164         164.9990183008      PH        B1 (2)
  116   166           6.0636027164         164.9990183008      PH        B2 (3)
  117    46           6.2374332256         169.7291869342     SG+        A1 (1)
  118    47           6.2751425986         170.7553111410      DE        A1 (1)
  119   206           6.2751425986         170.7553111410      DE        A2 (4)
  120   115           6.3033585587         171.5231064480      PI        B1 (2)
  121   167           6.3033585587         171.5231064480      PI        B2 (3)
  122   116           6.4285342914         174.9293113029      PH        B1 (2)
  123   168           6.4285342914         174.9293113029      PH        B2 (3)
  124    48           6.5593449291         178.4888497177      DE        A1 (1)
  125   207           6.5593449291         178.4888497178      DE        A2 (4)
  126    49           6.8310937133         185.8835100738     SG+        A1 (1)
  127   208           7.0578574714         192.0540656362      DE        A2 (4)
  128    50           7.0578574714         192.0540656362      DE        A1 (1)
  129   169           7.3077522961         198.8540495210      PI        B2 (3)
  130   117           7.3077522961         198.8540495210      PI        B1 (2)
  131    51           7.6623630076         208.5034975510     SG+        A1 (1)
  132    52           8.1451419442         221.6405802903     SG+        A1 (1)
  133   118           8.2330831411         224.0335819157      PI        B1 (2)
  134   170           8.2330831411         224.0335819158      PI        B2 (3)
  135   171          10.1132165949         275.1946141719      PI        B2 (3)
  136   119          10.1132165949         275.1946141719      PI        B1 (2)
  137    53          10.4938747828         285.5528500667     SG+        A1 (1)
  138   209          10.6069184951         288.6289258623      PI        A2 (4)
  139    54          10.6069184951         288.6289258623      PI        A1 (1)
  140   120          10.8336254779         294.7979364906      PH        B1 (2)
  141   172          10.8336254779         294.7979364906      PH        B2 (3)
  142    55          11.0136262610         299.6960068128     SG+        A1 (1)
  143    56          11.0722188383         301.2903918989      DE        A1 (1)
  144   210          11.0722188383         301.2903918989      DE        A2 (4)
  145   121          11.3107475772         307.7810888628      PI        B1 (2)
  146   173          11.3107475772         307.7810888628      PI        B2 (3)
  147    57          11.4883606528         312.6141863603     SG+        A1 (1)
  148   122          11.8560996053         322.6208719890      PH        B1 (2)
  149   174          11.8560996053         322.6208719890      PH        B2 (3)
  150    58          12.2107612141         332.2717050015      DE        A1 (1)
  151   211          12.2107612141         332.2717050016      DE        A2 (4)
  152   175          12.5679964296         341.9925694161      PI        B2 (3)
  153   123          12.5679964296         341.9925694161      PI        B1 (2)
  154    59          12.8296449976         349.1123889162      DE        A1 (1)
  155   212          12.8296449976         349.1123889163      DE        A2 (4)
  156    60          13.0751506644         355.7929377426     SG+        A1 (1)
  157   124          13.7555369507         374.3071898385      PI        B1 (2)
  158   176          13.7555369507         374.3071898386      PI        B2 (3)
  159    61          15.0496944853         409.5230066935     SG+        A1 (1)
  160    62          17.9278587269         487.8418373587     SG+        A1 (1)
  161   125          19.2439881255         523.6555390281      PI        B1 (2)
  162   177          19.2439881255         523.6555390282      PI        B2 (3)
  163    63          20.5369004399         558.8374717175     SG+        A1 (1)
  164    64          26.4606675378         720.0313693901      DE        A1 (1)
  165   213          26.4606675378         720.0313693901      DE        A2 (4)
  166   126          26.8960596465         731.8789909888      PI        B1 (2)
  167   178          26.8960596465         731.8789909888      PI        B2 (3)
  168    65          27.8639390360         758.2163281420     SG+        A1 (1)
  169   179          33.7644060192         918.7761974618      PI        B2 (3)
  170   127          33.7644060192         918.7761974621      PI        B1 (2)
  171    66          34.8029183220         947.0355538999     SG+        A1 (1)
  172    67          36.5055367696         993.3661572610     SG+        A1 (1)
  173   214          47.1041474443        1281.7690158382      DE        A2 (4)
  174    68          47.1041474443        1281.7690158382      DE        A1 (1)
  175   128          47.5159189858        1292.9738891251      PI        B1 (2)
  176   180          47.5159189858        1292.9738891252      PI        B2 (3)
  177    69          48.3387194098        1315.3634269263     SG+        A1 (1)
  178    70          64.1156737109        1744.6761792961     SG+        A1 (1)
  179   129          66.7170403231        1815.4629635460      PI        B1 (2)
  180   181          66.7170403231        1815.4629635461      PI        B2 (3)
  181    71          67.7139732545        1842.5908877665     SG+        A1 (1)
  182   130          98.6380573339        2684.0779959429      PH        B1 (2)
  183   182          98.6380573339        2684.0779959429      PH        B2 (3)
  184    72          98.6555940250        2684.5551935679      DE        A1 (1)
  185   215          98.6555940250        2684.5551935679      DE        A2 (4)
  186   183          98.7074968715        2685.9675418246      PI        B2 (3)
  187   131          98.7074968715        2685.9675418246      PI        B1 (2)
  188    73          98.7244533071        2686.4289498943     SG+        A1 (1)
  189   132         103.2827926844        2810.4676703567      PH        B1 (2)
  190   184         103.2827926844        2810.4676703567      PH        B2 (3)
  191    74         103.3221824869        2811.5395213755      DE        A1 (1)
  192   216         103.3221824870        2811.5395213772      DE        A2 (4)
  193   185         103.3546142452        2812.4220343860      PI        B2 (3)
  194   133         103.3546142452        2812.4220343861      PI        B1 (2)
  195    75         103.3928244609        2813.4617872139     SG+        A1 (1)
  196    76         115.1301397376        3132.8503732961      DE        A1 (1)
  197   217         115.1301397376        3132.8503732961      DE        A2 (4)
  198   186         115.3431093911        3138.6455721899      PI        B2 (3)
  199   134         115.3431093911        3138.6455721899      PI        B1 (2)
  200    77         115.8287890436        3151.8615874234     SG+        A1 (1)
  201   187         117.0184706125        3184.2344687182      PI        B2 (3)
  202   135         117.0184706125        3184.2344687187      PI        B1 (2)
  203    78         117.8343262362        3206.4350288940     SG+        A1 (1)
  204    79         122.7101346781        3339.1125217902     SG+        A1 (1)
  205   218         198.5664803360        5403.2686268117      DE        A2 (4)
  206    80         198.5664803360        5403.2686268118      DE        A1 (1)
  207   136         198.7872949488        5409.2772979012      PI        B1 (2)
  208   188         198.7872949488        5409.2772979016      PI        B2 (3)
  209    81         199.2004108818        5420.5187539425     SG+        A1 (1)
  210    82         216.6026071093        5894.0565874898     SG+        A1 (1)
  211   137         225.1440050732        6126.4798422579      PI        B1 (2)
  212   189         225.1440050732        6126.4798422580      PI        B2 (3)
  213    83         225.9580330120        6148.6306686007     SG+        A1 (1)
  214   190         395.4767883526       10761.4705136632      PI        B2 (3)
  215   138         395.4767883526       10761.4705136638      PI        B1 (2)
  216    84         396.1493767114       10779.7725733649     SG+        A1 (1)
  217    85         509.2846255576       13858.3392057726     SG+        A1 (1)
  218    86         895.4306041607       24365.9054779115     SG+        A1 (1)


  VSCF finished.

 @CHECKOUT-I, Total execution time (CPU/WALL):       50.49/      12.84 seconds.
--executable xvscf finished with status     0 in       12.90 seconds (walltime).
 --invoking executable--
/nfs/workspaces/public/cfour_mpi/bin/xvtran
 @GETMEM-I,  Allocated    3814 MB of main memory.
  Full RHF integral transformation
  Transformation of IIII integrals :
  1 pass through the AO integral file was required.
     4561068 AO integrals were read.
     8797989 MO integrals were written to HF2.
  Transformation of IIJJ integrals :
  1 pass through the AO integral file was required.
    10326499 AO integrals were read.
    14605550 MO integrals were written to HF2.
  Transformation of IJIJ integrals :
  1 pass through the AO integral file was required.
    19597705 AO integrals were read.
    27452902 MO integrals were written to HF2.
  Transformation of IJKL integrals :
  1 pass through the AO integral file was required.
    14500668 AO integrals were read.
    18557292 MO integrals were written to HF2.
  Summary of active molecular orbitals: 
------------------------------------------------------------------------
 
  Index      Eigenvalue    Symmetry    Index      Eigenvalue    Symmetry
------------------------------------------------------------------------
     1       -20.6667362        1       110         4.2014859        2
     2       -11.3965198        1       111         4.2015295        2
     3        -1.4668374        1       112         4.8146902        2
     4        -0.7981371        1       113         5.0008999        2
     5        -0.5624097        1       114         5.7196427        2
     6        -0.6067067        2       115         6.0636027        2
     7        -0.6067067        3       116         6.3033586        2
     8         0.0611278        1       117         6.4285343        2
     9         0.0739974        1       118         7.3077523        2
    10         0.1561657        1       119         8.2330831        2
    11         0.2277869        1       120        10.1132166        2
    12         0.2283448        1       121        10.8336255        2
    13         0.3006416        1       122        11.3107476        2
    14         0.3886113        1       123        11.8560996        2
    15         0.5086271        1       124        12.5679964        2
    16         0.5393531        1       125        13.7555370        2
    17         0.6138956        1       126        19.2439881        2
    18         0.7650563        1       127        26.8960596        2
    19         0.7768407        1       128        33.7644060        2
    20         0.8579031        1       129        47.5159190        2
    21         0.8762388        1       130        66.7170403        2
    22         0.8862984        1       131        98.6380573        2
    23         1.1488956        1       132        98.7074969        2
    24         1.4456358        1       133       103.2827927        2
    25         1.5310210        1       134       103.3546142        2
    26         1.6650392        1       135       115.3431094        2
    27         1.7568413        1       136       117.0184706        2
    28         1.8006244        1       137       198.7872949        2
    29         2.0875771        1       138       225.1440051        2
    30         2.1000111        1       139       395.4767884        2
    31         2.1802146        1       140         0.0592825        3
    32         2.3085626        1       141         0.1207366        3
    33         2.3512598        1       142         0.1664437        3
    34         2.4817083        1       143         0.3129990        3
    35         2.8280671        1       144         0.3953198        3
    36         2.9393433        1       145         0.6247772        3
    37         3.4751859        1       146         0.7470785        3
    38         3.7113464        1       147         0.8137845        3
    39         3.9180297        1       148         0.8875799        3
    40         4.1858529        1       149         1.0595976        3
    41         4.2463153        1       150         1.4414360        3
    42         4.3463641        1       151         1.5648927        3
    43         4.4263308        1       152         1.7433427        3
    44         5.0901711        1       153         2.0077217        3
    45         5.1271317        1       154         2.2448362        3
    46         5.5597302        1       155         2.3079407        3
    47         5.8885755        1       156         2.3334573        3
    48         6.2374332        1       157         2.5772854        3
    49         6.2751426        1       158         2.7627645        3
    50         6.5593449        1       159         3.7150029        3
    51         6.8310937        1       160         4.0877822        3
    52         7.0578575        1       161         4.2014859        3
    53         7.6623630        1       162         4.2015295        3
    54         8.1451419        1       163         4.8146902        3
    55        10.4938748        1       164         5.0008999        3
    56        10.6069185        1       165         5.7196427        3
    57        11.0136263        1       166         6.0636027        3
    58        11.0722188        1       167         6.3033586        3
    59        11.4883607        1       168         6.4285343        3
    60        12.2107612        1       169         7.3077523        3
    61        12.8296450        1       170         8.2330831        3
    62        13.0751507        1       171        10.1132166        3
    63        15.0496945        1       172        10.8336255        3
    64        17.9278587        1       173        11.3107476        3
    65        20.5369004        1       174        11.8560996        3
    66        26.4606675        1       175        12.5679964        3
    67        27.8639390        1       176        13.7555370        3
    68        34.8029183        1       177        19.2439881        3
    69        36.5055368        1       178        26.8960596        3
    70        47.1041474        1       179        33.7644060        3
    71        48.3387194        1       180        47.5159190        3
    72        64.1156737        1       181        66.7170403        3
    73        67.7139733        1       182        98.6380573        3
    74        98.6555940        1       183        98.7074969        3
    75        98.7244533        1       184       103.2827927        3
    76       103.3221825        1       185       103.3546142        3
    77       103.3928245        1       186       115.3431094        3
    78       115.1301397        1       187       117.0184706        3
    79       115.8287890        1       188       198.7872949        3
    80       117.8343262        1       189       225.1440051        3
    81       122.7101347        1       190       395.4767884        3
    82       198.5664803        1       191         0.2277869        4
    83       199.2004109        1       192         0.5393531        4
    84       216.6026071        1       193         0.7650563        4
    85       225.9580330        1       194         0.8862984        4
    86       396.1493767        1       195         1.5310210        4
    87       509.2846256        1       196         1.7568413        4
    88       895.4306042        1       197         2.1000111        4
    89         0.0592825        2       198         2.1802146        4
    90         0.1207366        2       199         2.3512598        4
    91         0.1664437        2       200         2.9393433        4
    92         0.3129990        2       201         3.7113464        4
    93         0.3953198        2       202         4.1858529        4
    94         0.6247772        2       203         4.3463641        4
    95         0.7470785        2       204         5.0901711        4
    96         0.8137845        2       205         5.8885755        4
    97         0.8875799        2       206         6.2751426        4
    98         1.0595976        2       207         6.5593449        4
    99         1.4414360        2       208         7.0578575        4
   100         1.5648927        2       209        10.6069185        4
   101         1.7433427        2       210        11.0722188        4
   102         2.0077217        2       211        12.2107612        4
   103         2.2448362        2       212        12.8296450        4
   104         2.3079407        2       213        26.4606675        4
   105         2.3334573        2       214        47.1041474        4
   106         2.5772854        2       215        98.6555940        4
   107         2.7627645        2       216       103.3221825        4
   108         3.7150029        2       217       115.1301397        4
   109         4.0877822        2       218       198.5664803        4
------------------------------------------------------------------------
  -20.6667362056300       -11.3965197644650       -1.46683743575338     
 -0.798137102479692      -0.562409692205799      -0.606706665648464     
 -0.606706665648461       6.112781423230756E-002  7.399737158570384E-002
  0.156165676235113       0.227786867680199       0.228344838246622     
  0.300641590907172       0.388611311788482       0.508627137117265     
  0.539353102299650       0.613895607606085       0.765056303708365     
  0.776840658838053       0.857903147376157       0.876238752979218     
  0.886298373169474        1.14889556773980        1.44563578040289     
   1.53102101484982        1.66503922864728        1.75684128672143     
   1.80062441140190        2.08757712612647        2.10001110217649     
   2.18021458908188        2.30856264960148        2.35125978520483     
   2.48170829803709        2.82806709837578        2.93934329331945     
   3.47518587945464        3.71134641717576        3.91802966688699     
   4.18585292180962        4.24631531869279        4.34636414798202     
   4.42633082883514        5.09017109895451        5.12713170808404     
   5.55973021083715        5.88857553308456        6.23743322561916     
   6.27514259862977        6.55934492906920        6.83109371329362     
   7.05785747137829        7.66236300764561        8.14514194417164     
   10.4938747828115        10.6069184950832        11.0136262610165     
   11.0722188383457        11.4883606527828        12.2107612140536     
   12.8296449976224        13.0751506644325        15.0496944853408     
   17.9278587269013        20.5369004398916        26.4606675377666     
   27.8639390359712        34.8029183220378        36.5055367696245     
[...]
 Convergence information after     9 iterations: 
 Largest element of residual vector : -0.14137098E-04.
 Largest element of DIIS residual   : -0.66511696E-05.
 Convergence information after    10 iterations: 
 Largest element of residual vector : -0.73527563E-05.
 Largest element of DIIS residual   : -0.51857501E-05.
 Convergence information after    11 iterations: 
 Largest element of residual vector : -0.33120326E-05.
 Largest element of DIIS residual   : -0.98281852E-06.
 Convergence information after    12 iterations: 
 Largest element of residual vector : -0.14602080E-05.
 Largest element of DIIS residual   :  0.54076523E-06.
 Convergence information after    13 iterations: 
 Largest element of residual vector :  0.44520040E-06.
 Largest element of DIIS residual   :  0.16706514E-06.
 Convergence information after    14 iterations: 
 Largest element of residual vector :  0.17680044E-06.
 Largest element of DIIS residual   :  0.75690929E-07.
 Perturbed amplitude equations converged in    14 iterations.
  Dominant contributions to perturbed wavefunction:
    7    7  141   28   0.2384257104 ABAB
    7    7   28  141   0.2384257104 ABAB
    7    7  141   37  -0.1877393175 ABAB
    7    7   37  141  -0.1877393175 ABAB
    7    7  141   39   0.1703634094 ABAB
    7    7   39  141   0.1703634094 ABAB
    7    7  140   28   0.1588192173 ABAB
    7    7   28  140   0.1588192173 ABAB
    7    6   28   90   0.1547962428 ABAB
    6    7   90   28   0.1547962428 ABAB
    7    7  141   45   0.1397839035 ABAB
    7    7   45  141   0.1397839035 ABAB
    7    7  141   53  -0.1311214493 ABAB
    7    7   53  141  -0.1311214493 ABAB
    7    0   45    0  -0.1308298348 AA  
    7    7  141   55   0.1276300861 ABAB
    7    7   55  141   0.1276300861 ABAB
    7    7  141   20   0.1274501159 ABAB
    7    7   20  141   0.1274501159 ABAB
    7    7  141   19  -0.1227030433 ABAB
  norm of converged amps    2.24808938680591     
 Starting iterative solution of the perturbed Lambda equations.
 The DIIS procedure is used to accelerate convergence.
 Convergence criterion is 10**(-7).
 Maximum number of iterations is 100.
 Convergence information after     1 iterations: 
 Largest element of residual vector :  0.62951163E-01.
 Largest element of DIIS residual   :  0.62951163E-01.
 Convergence information after     2 iterations: 
 Largest element of residual vector : -0.91977777E-02.
 Largest element of DIIS residual   : -0.56494816E-02.
 Convergence information after     3 iterations: 
 Largest element of residual vector : -0.49827220E-02.
 Largest element of DIIS residual   : -0.43760726E-02.
 Convergence information after     4 iterations: 
 Largest element of residual vector : -0.30887931E-02.
 Largest element of DIIS residual   : -0.25116619E-02.
 Convergence information after     5 iterations: 
 Largest element of residual vector : -0.19384589E-02.
 Largest element of DIIS residual   : -0.96634161E-03.
 Convergence information after     6 iterations: 
 Largest element of residual vector : -0.66263317E-03.
 Largest element of DIIS residual   : -0.18110402E-03.
 Convergence information after     7 iterations: 
 Largest element of residual vector : -0.16068797E-03.
 Largest element of DIIS residual   :  0.65536537E-04.
 Convergence information after     8 iterations: 
 Largest element of residual vector :  0.39690149E-04.
 Largest element of DIIS residual   : -0.26543817E-04.
 Convergence information after     9 iterations: 
 Largest element of residual vector : -0.10352807E-04.
 Largest element of DIIS residual   : -0.64001760E-05.
 Convergence information after    10 iterations: 
 Largest element of residual vector : -0.56007566E-05.
 Largest element of DIIS residual   : -0.44481579E-05.
 Convergence information after    11 iterations: 
 Largest element of residual vector : -0.24627057E-05.
 Largest element of DIIS residual   : -0.93174876E-06.
 Convergence information after    12 iterations: 
 Largest element of residual vector : -0.12710817E-05.
 Largest element of DIIS residual   :  0.82265708E-06.
 Convergence information after    13 iterations: 
 Largest element of residual vector :  0.62943646E-06.
 Largest element of DIIS residual   :  0.37798072E-06.
 Convergence information after    14 iterations: 
 Largest element of residual vector :  0.34013153E-06.
 Largest element of DIIS residual   :  0.16631106E-06.
 Convergence information after    15 iterations: 
 Largest element of residual vector :  0.10985855E-06.
 Largest element of DIIS residual   :  0.51494957E-07.
 Perturbed Lambda equations converged in    15 iterations.
  Dominant contributions to perturbed wavefunction:
    7    7  141   28   0.2223938595 ABAB
    7    7   28  141   0.2223938595 ABAB
    7    7  141   37  -0.1765455554 ABAB
    7    7   37  141  -0.1765455554 ABAB
    7    7  141   39   0.1573299170 ABAB
    7    7   39  141   0.1573299170 ABAB
    7    7  140   28   0.1490692562 ABAB
    7    7   28  140   0.1490692562 ABAB
    7    6   28   90   0.1421897387 ABAB
    6    7   90   28   0.1421897387 ABAB
    7    7  141   45   0.1266016557 ABAB
    7    7   45  141   0.1266016557 ABAB
    7    7  141   53  -0.1210529607 ABAB
    7    7   53  141  -0.1210529607 ABAB
    7    7  141   55   0.1174780945 ABAB
    7    7   55  141   0.1174780945 ABAB
    7    7  141   20   0.1167848159 ABAB
    7    7   20  141   0.1167848159 ABAB
    5    5  141   45   0.1167034810 ABAB
    5    5   45  141   0.1167034810 ABAB
        The DBOC first-order density matrix is being calculated 
             (Symmetry block 3, perturbation   2)
 term   5.84991702535999     
 final tnorm  0.876626820647042     
  norm contr. I: |<0|L dT/dx|0>|^2   0.000000000000000E+000
  norm contr. II: <0|[nabla(1+L)e-T][nabla e^T]|0>   5.84991702535999     
  total norm contribution   5.84991702535999     
 oo  9.174223340751400E-003
 vv  -39.0063498735388     
 vo  4.920643328715194E-002
  Correlated perturbed 1-el contribution to DBOC  -38.9479692169109       cm**-1
  SUM_I |dc_I/dx|^2 contribution to DBOC   19.5703051707423       cm**-1
 
 
  The total diagonal Born-Oppenheimer correction (DBOC) is:      0.0038684623 a.u.
  The total diagonal Born-Oppenheimer correction (DBOC) is:        849.029337 cm-1
 
 Total CC energy including DBOC  -113.267129886727     
 First-order density matrix is being calculated  (Symmetry block 3, perturbation   2)
 Calculation of the contributions of <pq||rs> to dI(i,j)/dx required   3.6 seconds.
 Calculation of the contributions of <pq||rs> to dI(a,b)/dx required  16.0 seconds.
 Calculation of the contributions of <pq||rs> to dI(i,a)/dx required   9.9 seconds.
 First-order Z-vector equations are solved for 1 perturbation.
 Convergence reached after  18 iterations.
        U*G(pq,rs) contribution is being calculated
             (Symmetry block 3, perturbation   2)

 CCSD contribution to force constants 

        0.0000000000        0.0000000000        0.0000000000
        0.0000000000        0.0000000000        0.0000000000
        0.0000000000        0.0000000000        0.0000000000
        0.0000000000        0.0000000000        0.0000000000
        0.0000000000        0.0000000000        0.0000000000
        0.0000000000        0.0000000000        0.0000000000
        0.0000000000        0.0000000000        0.0000000000
        0.0000000000        0.0000000000        0.0000000000
        0.0000000000        0.0000000000        0.0000000000
        0.0000000000        0.0000000000        0.0000000000
        0.0000000000        0.0000000000        0.0000000000
        0.0000000000        0.8069060939       -0.8069060939

 CCSD contribution to dipole derivatives 

        0.0000000000        0.0000000000        0.0000000000
        0.0000000000        0.0000000000        0.0000000000
        0.0000000000        0.0000000000        0.0000000000
        0.0000000000        0.0000000000       -0.0479941822
        0.0000000000        0.0000000000        0.0000000000
        0.0000000000        0.0000000000        0.0000000000
 @CHECKOUT-I, Total execution time (CPU/WALL):     1283.36/     487.12 seconds.
--executable xsdcc finished with status     0 in      487.35 seconds (walltime).
 --invoking executable--
/nfs/workspaces/public/cfour_mpi/bin/xanti
 @GETMEM-I,  Allocated    3814 MB of main memory.
 CCSD MO derivative gammas will be sorted to Mulliken order.
 @CHECKOUT-I, Total execution time (CPU/WALL):       14.13/      15.73 seconds.
--executable xanti finished with status     0 in       15.90 seconds (walltime).
 --invoking executable--
/nfs/workspaces/public/cfour_mpi/bin/xbcktrn
 @GETMEM-I,  Allocated    3814 MB of main memory.
 CCSD MO derivative gammas will be transformed to the AO basis.
 @CHECKOUT-I, Total execution time (CPU/WALL):       32.14/      22.43 seconds.
--executable xbcktrn finished with status     0 in       22.49 seconds (walltime).
 --invoking executable--
/nfs/workspaces/public/cfour_mpi/bin/xvdint
 @GETMEM-I,  Allocated    3814 MB of main memory.
 One- and two-electron integral derivatives are calculated
 for RHF-CC/MBPT hessians and dipole derivatives.
 Spherical gaussians are used.
  magnet F F
                    8722  records have been written to the Sort file.
  Total length of Sort file :             178609116  words.
 Evaluation of 2el integral derivatives

                      Two-electron integral gradient
                      ------------------------------

                         C #1 z     0.0000000000
                         O #2 z     0.0000000000


 C #1       0.0000000000           -0.3878264573            0.0000000000
 O #2       0.0000000000            0.3878264573            0.0000000000


 Evaluation of 2e integral derivatives required  348.86 seconds.
  contribution to Hessian
        0.0000000000        0.0000000000        0.0000000000
        0.0000000000       -0.3878264573        0.3878264573
 @CHECKOUT-I, Total execution time (CPU/WALL):      348.85/      71.52 seconds.
--executable xvdint finished with status     0 in       71.70 seconds (walltime).
 --invoking executable--
/nfs/workspaces/public/cfour_mpi/bin/xanti
 @GETMEM-I,  Allocated    3814 MB of main memory.
 CCSD MO gammas will be sorted to Mulliken order.
 @CHECKOUT-I, Total execution time (CPU/WALL):       16.48/      48.63 seconds.
--executable xanti finished with status     0 in       48.77 seconds (walltime).
 --invoking executable--
/nfs/workspaces/public/cfour_mpi/bin/xbcktrn
 @GETMEM-I,  Allocated    3814 MB of main memory.
 CCSD MO gammas will be transformed to the AO basis.
 @CHECKOUT-I, Total execution time (CPU/WALL):       51.64/       9.75 seconds.
--executable xbcktrn finished with status     0 in        9.83 seconds (walltime).
 --invoking executable--
/nfs/workspaces/public/cfour_mpi/bin/xvdint
 @GETMEM-I,  Allocated    3814 MB of main memory.
 One- and two-electron integral derivatives are calculated
 for RHF-CC/MBPT hessians and dipole derivatives.
 Spherical gaussians are used.
  magnet F F

                     Kinetic energy integral gradient
                     --------------------------------

                         C #1 z    -1.2638276203
                         O #2 z     1.2638276203


 C #1       0.0000000000            0.0000000000           -1.2638276203
 O #2       0.0000000000            0.0000000000            1.2638276203



                   Nuclear attraction integral gradient
                   ------------------------------------

                         C #1 z    21.5070423608
                         O #2 z   -21.5070423608


 C #1       0.0000000000            0.0000000000           21.5070423608
 O #2       0.0000000000            0.0000000000          -21.5070423608



                      Reorthonormalization gradient
                      -----------------------------

                         C #1 z     0.0000000000
                         O #2 z     0.0000000000


 C #1       0.0000000000            0.0000000000            0.0000000000
 O #2       0.0000000000            0.0000000000            0.0000000000



                     Kinetic energy integral Hessian
                     -------------------------------


           Symmetry 1

           C #1 z      O #2 z

 C #1 z    1.069958
 O #2 z   -1.069958    1.069958


           Symmetry 2

           C #1 x      O #2 x

 C #1 x   -1.492862
 O #2 x    1.492862   -1.492862


           Symmetry 3

           C #1 y      O #2 y

 C #1 y   -1.492862
 O #2 y    1.492862   -1.492862




           C #1 x      C #1 y      C #1 z      O #2 x      O #2 y      O #2 z

 C #1 x   -1.492862
 C #1 y    0.000000   -1.492862
 C #1 z    0.000000    0.000000    1.069958

 O #2 x    1.492862    0.000000    0.000000   -1.492862
 O #2 y    0.000000    1.492862    0.000000    0.000000   -1.492862
 O #2 z    0.000000    0.000000   -1.069958    0.000000    0.000000    1.069958




                   Nuclear attraction integral Hessian
                   -----------------------------------


           Symmetry 1

           C #1 z      O #2 z

 C #1 z  -12.761519
 O #2 z   12.761519  -12.761519


           Symmetry 2

           C #1 x      O #2 x

 C #1 x   17.321974
 O #2 x  -17.321974   17.321974


           Symmetry 3

           C #1 y      O #2 y

 C #1 y   17.321974
 O #2 y  -17.321974   17.321974




           C #1 x      C #1 y      C #1 z      O #2 x      O #2 y      O #2 z

 C #1 x   17.321974
 C #1 y    0.000000   17.321974
 C #1 z    0.000000    0.000000  -12.761519

 O #2 x  -17.321974    0.000000    0.000000   17.321974
 O #2 y    0.000000  -17.321974    0.000000    0.000000   17.321974
 O #2 z    0.000000    0.000000   12.761519    0.000000    0.000000  -12.761519




                Highest order reorthonormalization Hessian
                ------------------------------------------


           Symmetry 1

           C #1 z      O #2 z

 C #1 z    0.000000
 O #2 z    0.000000    0.000000


           Symmetry 2

           C #1 x      O #2 x

 C #1 x    0.000000
 O #2 x    0.000000    0.000000


           Symmetry 3

           C #1 y      O #2 y

 C #1 y    0.000000
 O #2 y    0.000000    0.000000




           C #1 x      C #1 y      C #1 z      O #2 x      O #2 y      O #2 z




                Electronic contributions to dipole moment
                -----------------------------------------

                               au             Debye

                    z     -0.85687319     -2.17795478

  Conversion factor used: 1 a.u. =   2.54174691 Debye 



   Electronic contributions to static part of dipole moment derivatives
   --------------------------------------------------------------------


                     Total dipole moment derivatives
                     -------------------------------


           Symmetry 1
                              Ez

               C #1 z    -5.67134849
               O #2 z    -8.32865151

           Symmetry 2
                              Ex

               C #1 x    -5.74850437
               O #2 x    -8.25149563

           Symmetry 3
                              Ey

               C #1 y    -5.74850437
               O #2 y    -8.25149563



                       Ex          Ey          Ez

      C #1    x   -5.748504    0.000000    0.000000
      C #1    y    0.000000   -5.748504    0.000000
      C #1    z    0.000000    0.000000   -5.671348

      O #2    x   -8.251496    0.000000    0.000000
      O #2    y    0.000000   -8.251496    0.000000
      O #2    z    0.000000    0.000000   -8.328652

 Evaluation of 1e integral derivatives required    1.72 seconds.
                    8815  records have been written to the Sort file.
  Total length of Sort file :             180513570  words.
 Evaluation of 2el integral derivatives

                      Two-electron integral gradient
                      ------------------------------

                         C #1 z   -10.4626523126
                         O #2 z    10.4626523126


 C #1       0.0000000000            0.0000000000          -10.4626523126
 O #2       0.0000000000            0.0000000000           10.4626523126


 Evaluation of 2e integral derivatives required  737.75 seconds.

                            Molecular gradient
                            ------------------

                         C #1 z     0.6051607843
                         O #2 z    -0.6051607843


 C #1       0.0000000000            0.0000000000            0.6051607843
 O #2       0.0000000000            0.0000000000           -0.6051607843


  Molecular gradient norm 0.856E+00

                            Molecular hessian
                            -----------------


           Symmetry 1

           C #1 z      O #2 z

 C #1 z   52.787042
 O #2 z  -52.787042   52.787042


           Symmetry 2

           C #1 x      O #2 x

 C #1 x   -0.184445
 O #2 x    0.184445   -0.184445


           Symmetry 3

           C #1 y      O #2 y

 C #1 y   -0.184445
 O #2 y    0.184445   -0.184445




           C #1 x      C #1 y      C #1 z      O #2 x      O #2 y      O #2 z

 C #1 x   -0.184445
 C #1 y    0.000000   -0.184445
 C #1 z    0.000000    0.000000   52.787042

 O #2 x    0.184445    0.000000    0.000000   -0.184445
 O #2 y    0.000000    0.184445    0.000000    0.000000   -0.184445
 O #2 z    0.000000    0.000000  -52.787042    0.000000    0.000000   52.787042




                           Total dipole moment
                           -------------------

                               au             Debye

                    z      0.05765658      0.14654844

  Conversion factor used: 1 a.u. =   2.54174691 Debye 



                     Total dipole moment derivatives
                     -------------------------------


           Symmetry 1
                              Ez

               C #1 z     0.71797912
               O #2 z    -0.71797912

           Symmetry 2
                              Ex

               C #1 x     0.02291618
               O #2 x    -0.02291618

           Symmetry 3
                              Ey

               C #1 y     0.02291618
               O #2 y    -0.02291618



                       Ex          Ey          Ez

      C #1    x    0.022916    0.000000    0.000000
      C #1    y    0.000000    0.022916    0.000000
      C #1    z    0.000000    0.000000    0.717979

      O #2    x   -0.022916    0.000000    0.000000
      O #2    y    0.000000   -0.022916    0.000000
      O #2    z    0.000000    0.000000   -0.717979

 @CHECKOUT-I, Total execution time (CPU/WALL):      739.46/     124.90 seconds.
--executable xvdint finished with status     0 in      125.10 seconds (walltime).
 --invoking executable--
/nfs/workspaces/public/cfour_mpi/bin/xjoda
  @GTFLGS-I, Hessian will be transformed to curvilinear coordinates.
  @GTFLGS-I, Hessian will be transformed to curvilinear coordinates.
  igrd and ihes are                      0                     1
  gradient from JOBARC 
   0.000000000000000   0.000000000000000   0.605160784338167
   0.000000000000000   0.000000000000000  -0.605160784338167
 
  @PROJFCM-I, Projecting force constant matrix onto totally symmetric subspace.
  Largest difference between matrix elements of symmetrized
  and unsymmetrized FCM :    -0.1398769989E-10.
  read isotopes from ZMAT file 
 
  Summary of diagonal Born-Oppenheimer correction at the correlated level
  The total diagonal Born-Oppenheimer correction (DBOC) is:      0.0038684623 a.u.
  The total diagonal Born-Oppenheimer correction (DBOC) is:        849.029337 cm-1
  The total diagonal Born-Oppenheimer correction (DBOC) is:            10.157 kJ/mole
  hellooooooo 
  readis is  F
 
 @CHECKOUT-I, Total execution time (CPU/WALL):        0.02/       0.09 seconds.
--executable xjoda finished with status     0 in        0.15 seconds (walltime).
  The final electronic energy is      -113.267129886727119 a.u. 
  This computation required                         4131.09 seconds (walltime).
