 --invoking executable--
/nfs/workspaces/public/cfour_mpi/bin/xjoda


   *************************************************************************
         <<<     CCCCCC     CCCCCC   |||     CCCCCC     CCCCCC   >>>
       <<<      CCC        CCC       |||    CCC        CCC         >>>
      <<<      CCC        CCC        |||   CCC        CCC            >>>
    <<<        CCC        CCC        |||   CCC        CCC              >>>
      <<<      CCC        CCC        |||   CCC        CCC            >>>
       <<<      CCC        CCC       |||    CCC        CCC         >>>
         <<<     CCCCCC     CCCCCC   |||     CCCCCC     CCCCCC   >>>
   *************************************************************************

     ****************************************************************
     * CFOUR Coupled-Cluster techniques for Computational Chemistry *
     ****************************************************************
 

   Department of Chemistry                Institut fuer Physikalische Chemie
   University of Florida                  Universitaet Mainz
   Gainesville, FL 32611, USA             D-55099 Mainz, Germany

   Department of Chemistry                Fakultaet fuer Chemie und Biowiss.
   Johns Hopkins University               Karlsruher Institut fuer Technologie
   Baltimore, MD 21218, USA               D-76131 Karlsruhe, Germany

   Department of Chemistry                Department of Physical Chemistry
   Southern Methodist University          Eotvos Lorand University
   Dallas, TX 75275, USA                  H-1053 Budapest, Hungary

 
                       Version 2.1
 
                     vincent.theory.phys.ucl.ac.uk                     
                     Sat  1 Mar 06:16:34 GMT 2025                      
                     integer*8 version is running
 
********************************************************************************
*                          Input from ZMAT file                                *
********************************************************************************
Carbon Monoxide DBOC calculation                                                
C                                                                               
O 1 r                                                                           
                                                                                
r=0.9620689655172414                                                            
                                                                                
                                                                                
*CFOUR(CALC=CCSD,BASIS=AUG-PCVQZ,SCF_CONV=10                                    
CC_CONV=14,DBOC=ON,MEMORY=500000000                                             
ZFIELD=200)                                                                     
                                                                                
%isotopes                                                                       
12                                                                              
18                                                                              
********************************************************************************
  @GTFLGS-I, Hessian will be transformed to curvilinear coordinates.
    -------------------------------------------------------------------
                    CFOUR Control Parameters 
    -------------------------------------------------------------------
        External           Internal           Value            Units
          Name               Name
    -------------------------------------------------------------------
       ABCDTYPE             IABCDT         STANDARD    [  0]    ***   
       ANHARMONIC           IANHAR         OFF         [  0]    ***   
       ANH_ALGORIT          IANALG         STANDARD    [  0]    ***   
       ANH_DERIVAT          IANDER         SECOND      [  1]    ***   
       ANH_MODE             ANHMOD         VIBRATION   [  0]    ***   
       ANH_STEPSIZ          ICUBST             50000          x 10-6  
       ANH_SYMMETR          IANHSM         ABELIAN     [  0]    ***   
       AO_LADDERS           IAOLAD         SINGLEPASS  [  1]    ***   
       AV_SCF               IAVSCF         OFF         [  0]    ***   
       BASIS                IBASIS         AUG-PCVQZ   [ 52]    ***   
       BOTHVECTORS          BOTHVC         OFF         [  0]    ***   
       BOX_POTENT           IPIAB          OFF         [  0]    ***   
       BREIT                IBREIT         OFF         [  0]    ***   
       BRUCK_CONV           IBRTOL          10D-  4             ***   
       BRUECKNER            IBRKNR         OFF         [  0]    ***   
       BUFFERSIZE           IBUFFS              4096            ***   
       CACHE_RECS           ICHREC             10               ***   
       CALCLEVEL            ICLLVL         CCSD        [ 10]    ***   
       CCORBOPT             ICCORB         OFF         [  0]  x 0.01  
       CC_CONV              ICCCNV          10D- 14             ***   
       CC_EXPORDER          ICCEOR              5               ***   
       CC_EXTRAPOL          ICCEXT         DIIS        [  1]    ***   
       CC_GUESS             ICCGES         MP2         [  0]    ***   
       CC_MAXCYC            ICCCYC            100              cycles 
       CC_PROGRAM           ICCPRO         VCC         [  0]    ***   
       CHARGE               ICHRGE              0               ***   
       CHOLESKY             ICHOLE         OFF         [  0]    ***   
       CIS_CONV             ICISTL              5               ***   
       COMM_SIZE            IPSIZE            ***               ***   
       CONSTANT             ICONST         OLD         [  1]    ***   
       CONTINUUM            ICONTU         NONE        [  0]    ***   
       CONTRACTION          ICNTYP         GENERAL     [  1]    ***   
       COORDINATES          ICOORD         INTERNAL    [  0]    ***   
       CPHF_CONVER          ICPHFT          10D- 16             ***   
       CPHF_MAXCYC          ICPHFC             64              cycles 
       CUBIC                ICUBIC         OFF         [  0]    ***   
       CURVILINEAR          ICURVY         ON          [  1]    ***   
       DBOC                 IDBOC          ON          [  1]    ***   
       DCT                  IDCT           OFF         [  0]    ***   
       DERIV_LEV            IDRLVL         SECOND      [  2]    ***   
       DEVMEM_SIZE          IDVMEM          50000000           MByte  
       DIAG_MRCC            IEOMST          10D-  0             ***   
       DIFF_TYPE            IDIFTY         RELAXED     [  0]    ***   
       DIRECT               IDIRCT         OFF         [  0]    ***   
       DROPMO               IDRPMO      NONE         
       ECP                  IECP           OFF         [  0]    ***   
       EIGENVECTOR          IVEC                1               ***   
       EL_ANHARM            IELANH         OFF         [  0]    ***   
       EOMFOLLOW            IEOMSR         ENERGY      [  0]    ***   
       EOMIP                IEOMIP         OFF         [  0]    ***   
       EOMLEVEL             HBARFM         SAME        [  0]    ***   
       EOM_MRCC             IMRCCE         NEW         [  1]    ***   
       EOM_NONIT            EOMNON         OFF         [  0]    ***   
       EOM_NSING            IEOMSI          10D-  0             ***   
       EOM_NSTATES          IMRCCD         DAVIDSON    [  0]    ***   
       EOM_NTRIP            IEOMTR          10D-  0             ***   
       EOM_ORDER            IEXORD         ENERGY      [  0]    ***   
       EOM_PROPSTA          IEOMST              0               ***   
       ESTATE_CONV          IEXTOL          10D-  5             ***   
       ESTATE_DIAG          IEXDIG         ITERATIVE   [  0]    ***   
       ESTATE_LOCK          IESLOC         ON          [  1]    ***   
       ESTATE_MAXC          IEXMXC             40               ***   
       ESTATE_PROP          IEXPRP         OFF         [  0]    ***   
       EVAL_HESS            IRECAL              0            # of cyc.
       EXCITATION           IEXCIT              0               ***   
       EXCITE               IEXCIT         NONE        [  0]    ***   
       EXTERN_POT           IEXPOT         OFF         [  0]    ***   
       FCGRADNEW            IFCGNW         OFF         [  0]    ***   
       FC_FIELD             IFINFC              0             x 10-6  
       FD_CALTYPE           IFDCAL         GRADONLY    [  0]    ***   
       FD_PROJECT           IFDPRJ         OFF         [  1]    ***   
       FD_STEPSIZE          IDISFD              0            10-4 bohr
       FD_USEGROUP          IFDGRP         FULL        [  0]    ***   
       FILE_RECSIZ          IFLREC              4096           words  
       FINITE_PERT          IFIPER              0             x 10-6  
       FIXGEOM              IFIXGM         OFF         [  0]    ***   
       FOCK                 IFOCK          AO          [  1]    ***   
       FREQ_ALGORI          IVIALG         STANDARD    [  0]    ***   
       FROZEN_CORE          IFROCO         OFF         [  0]    ***   
       GAMMA_ABCD           IGABCD         STORE       [  0]    ***   
       GAMMA_ABCI           IGABCI         STORE       [  0]    ***   
       GENBAS_1             IGNBS1              0               ***   
       GENBAS_2             IGNBS2              0               ***   
       GENBAS_3             IGNBS3              0               ***   
       GENBAS_4             IGNBS4              0               ***   
       GEO_CONV             ICONTL              5              H/bohr 
       GEO_MAXCYC           IOPTCY             50               ***   
       GEO_MAXSTEP          IMXSTP            300            millibohr
       GEO_METHOD           INR            SINGLE_POINT[  5]    ***   
       GIAO                 IGIAO          OFF         [  1]    ***   
       GIMIC                IGIMIC         OFF         [  0]    ***   
       GRID                 IGRID          OFF         [  0]    ***   
       GRID_ALGO            IGALGO         SERIAL      [  0]    ***   
       GUESS                IGUESS         MOREAD      [  0]    ***   
       HBAR                 IHBAR          OFF         [  0]    ***   
       HESS_TYPE            IHESTP         SCF         [  0]    ***   
       HF2_FILE             IHF2Fl         USE         [  1]    ***   
       HFSTABILITY          ISTABL         OFF         [  0]    ***   
       INCORE               INCORE         OFF         [  0]    ***   
       INPUT_MRCC           IMRCC          ON          [  1]    ***   
       INTEGRALS            INTTYP         VMOL        [  1]    ***   
       JODA_PRINT           IJPRNT              0               ***   
       KEYWORD_OUT          IDMPKW         NO          [  0]    ***   
       LINDEP_TOL           ILINDP              8               ***   
       LINEQ_CONV           IZTACN          10D-  7           cycles  
       LINEQ_EXPOR          ILMAXD              5               ***   
       LINEQ_MAXCY          ILMAXC            100               ***   
       LINEQ_TYPE           ILTYPE         DIIS        [  1]    ***   
       LOCK_ORBOCC          ILOCOC         OFF         [  0]    ***   
       MEMORY_SIZE          IMEMSZ         500000000           words  
       MEM_UNIT             IMEMU          INTEGERWORDS[  0]    ***   
       MRCC                 IMRCCC         OFF         [  0]    ***   
       MULTIPLICTY          IMULTP              1               ***   
       NACOUPLING           IVCOUP         OFF         [  0]    ***   
       NEGEVAL              IDIE           ABORT       [  0]    ***   
       NEWNORM              INEWNO         OFF         [  0]    ***   
       NON-HF               INONHF         OFF         [  0]    ***   
       NTOP_TAMP            ITOPT2             15               ***   
       NUC_MODEL            INUCMO         POINT       [  0]    ***   
       OCCUPATION           IOCCU   ESTIMATED BY SCF 
       OPEN-SHELL           IOPEN          SPIN-ORBITAL[  0]    ***   
       OPTVIB               IOPTVB         OFF         [  0]    ***   
       ORBITALS             IORBTP         STANDARD    [  0]    ***   
       PARALLEL             IPARAL         ON          [  1]    ***   
       PARA_INT             IPINTS         ON          [  1]    ***   
       PARA_PRINT           IPPRIN              0               ***   
       PERT_ORB             IPTORB         STANDARD    [  0]    ***   
       POINTS               IGRDFD              0               ***   
       PRINT                IPRNT               0               ***   
       PROPS                IPROPS         OFF         [  0]    ***   
       PROP_INTEGR          IINTYP         INTERNAL    [  0]    ***   
       PSI                  IPSI           OFF         [  0]    ***   
       QC_ALG               IQCALG         FLM         [  0]    ***   
       QC_LINALG            IQCLIN         TRIDIAG     [  2]    ***   
       QC_MAXCYC            IQCMAX          10D-100           cycles  
       QC_MAXSCFCY          IQCMSC          10D- 15           cycles  
       QC_RTRUST            IQCRTR          10D-  0           x 10-3  
       QC_SKIPSCF           IQCSKI         OFF         [  0]    ***   
       QC_START             IQCSTA          10D-  1             ***   
       QRHFGUESS            IQGUES         OFF         [  0]    ***   
       QUARTIC              IQUART         OFF         [  0]    ***   
       RAMAN_INT            IRAMIN         OFF         [  0]    ***   
       RAMAN_ORB            IRAMRE         UNRELAXED   [  0]    ***   
       RDO                  IRDOFM         ON          [  1]    ***   
       REDUCE_REPR          REDREP         Ir          [  0]    ***   
       REFERENCE            IREFNC         RHF         [  0]    ***   
       RELATIVIST           IRELAT         OFF         [  0]    ***   
       RELAX_DENS           IRDENS         ON          [  1]    ***   
       RESET_FLAGS          IRESET         OFF         [  0]    ***   
       RESTART_CC           ICCRES         OFF         [  0]    ***   
       ROT_EVEC             ROTVEC              0               ***   
       SAVE_INTS            ISVINT         OFF         [  0]    ***   
       SCALE_ON             ISTCRT              0               ***   
       SCF_CONV             ISCFCV          10D- 10             ***   
       SCF_DAMPING          IDAMP               0             x 10-3  
       SCF_EXPORDE          IRPPOR              6               ***   
       SCF_EXPSTAR          IRPPLS              8               ***   
       SCF_EXTRAPO          IRPP           ON          [  1]    ***   
       SCF_MAXCYC           ISCFCY            150              cycles 
       SCF_NOSTOP           ISCFST         OFF         [  0]    ***   
       SCF_PRINT            ISCFPR              0               ***   
       SCF_PROG             ISCFPR         SCF         [  0]    ***   
       SD_FIELD             IFINSD              0             x 10-6  
       SOPERT               IPERSO         OFF         [  0]    ***   
       SPHERICAL            IDFGHI         ON          [  1]    ***   
       SPINORBIT            ISOCAL         OFF         [  0]    ***   
       SPINROTATIO          ISRCON         OFF         [  0]    ***   
       SPIN_FLIP            ISPFLP         OFF         [  0]    ***   
       SPIN_ORBIT           ISPORB         OFF         [  0]    ***   
       SPIN_SCAL            ISCSMP         OFF         [  0]    ***   
       STEEPSCALE           ISTPSC              1000          x 10-3  
       SUBGROUP             ISUBGP         DEFAULT     [  0]    ***   
       SUBGRPAXIS           ISBXYZ         X           [  0]    ***   
       SYMMETRY             ISYM           ON          [  0]    ***   
       SYM_CHECK            ISYMCK         OVERRIDE    [  1]    ***   
       T3_EXTRAPOL          IT3EXT         OFF         [  0]    ***   
       T4_EXTRAPOL          IT4EXP         OFF         [  0]    ***   
       TAMP_SUM             IEVERY              5               ***   
       TESTSUITE            ITESTS         OFF         [  0]    ***   
       THERMOCH             ITHERM         OFF         [  0]    ***   
       TOL_CHOLESK          ITOLCH          10D-  4             ***   
       TRANGRAD             IRESRM         OFF         [  0]    ***   
       TRANS_INV            ITRAIN         IGNORE      [  1]    ***   
       TREAT_PERT           ITREAT         SIMULTANEOUS[  0]    ***   
       TRIP_ALGORI          ITRALG         NORMAL      [  0]    ***   
       UIJ_THRESHO          IUIJTH              1               ***   
       UNITS                IUNITS         ANGSTROM    [  0]    ***   
       UNOS                 IUNOS          OFF         [  0]    ***   
       UPDATE_HESS          IHUPDT         ON          [  1]    ***   
       VIBPHASE             ISETPH         STANDARD    [  0]    ***   
       VIBRATION            IVIB           ANALYTIC    [  1]    ***   
       VIB_ALGORIT          IGEALG         STANDARD    [  0]    ***   
       VNATORB              IVNORB         OFF         [  0]    ***   
       VTRAN                IVTRAN         FULL/PARTIAL[  0]    ***   
       XFIELD               IXEFLD              0             x 10-6  
       XFORM_TOL            IXFTOL          10D- 11             ***   
       YFIELD               IYEFLD              0             x 10-6  
       ZFIELD               IZEFLD            200             x 10-6  
       ZSCALE_EXP           IZEXPS         OFF         [  0]    ***   
    -------------------------------------------------------------------
   2 entries found in Z-matrix 
   Job Title : Carbon Monoxide DBOC calculation                                                
   There are  1 unique internal coordinates.
   Of these,  0 will be optimized.
   User supplied Z-matrix: 
--------------------------------------------------------------------------------
       SYMBOL    BOND      LENGTH    ANGLE     ANGLE     DIHED     ANGLE
                  TO      (ANGST)    WRT      (DEG)      WRT      (DEG)
--------------------------------------------------------------------------------
        C    
        O          1         r    
                  *Initial values for internal coordinates* 
                      Name             Value
                        r               0.9620689655
--------------------------------------------------------------------------------
  read isotopes from ZMAT file 
   Rotational constants (in cm-1): 
          2.5296460128             2.5296460128
   Rotational constants (in MHz): 
      75836.8902283436         75836.8902283436
********************************************************************************
   The full molecular point group is CXv .
   The largest Abelian subgroup of the full molecular point group is C2v .
   The computational point group is C2v .
********************************************************************************
--------------------------------------------------------------------------------
   Analysis of internal coordinates specified by Z-matrix 
--------------------------------------------------------------------------------
   *The nuclear repulsion energy is   26.401954236559135 a.u.
   *There is   1 degree of freedom within the tot. symm. molecular subspace.
   *Z-matrix requests optimization of   0 coordinates.
   *The optimization is constrained.
   *The following   1 parameters can have non-zero 
    derivatives within the totally symmetric subspace:
             r    [ 1]
   *The following   0 parameters are to be optimized:

   *The following coordinates must be varied in an  unconstrained optimization.
             r    [ 1]
--------------------------------------------------------------------------------


 ----------------------------------------------------------------
         Coordinates used in calculation (QCOMP) 
 ----------------------------------------------------------------
 Z-matrix   Atomic            Coordinates (in bohr)
  Symbol    Number           X              Y              Z
 ----------------------------------------------------------------
     C         6        -0.00000000     0.00000000     1.09080799
     O         8         0.00000000     0.00000000    -0.72723925
 ----------------------------------------------------------------
 
   Interatomic distance matrix (Angstroms) 
 
                 C             O    
                [ 1]        [ 2]
  C    [ 1]     0.00000
  O    [ 2]     0.96207     0.00000
 rotcon2
   Rotational constants (in cm-1): 
          2.5296460128             0.0000000000
   Rotational constants (in MHz): 
      75836.8902283436             0.0000000000
  ECPDATA file not present.   Using default ECPDATA. 
  @GTFLGS-I, Hessian will be transformed to curvilinear coordinates.
  There are  218 basis functions.
 @CHECKOUT-I, Total execution time (CPU/WALL):        0.15/       0.22 seconds.
--executable xjoda finished with status     0 in        0.26 seconds (walltime).
 --invoking executable--
/nfs/workspaces/public/cfour_mpi/bin/xvmol
 SERIAL VERSION OF MOLECULE STARTED
********************************************************************************
                    INPUT FROM MOL FILE
********************************************************************************
INTGRL        1    0    1    0    0    0    0    0    0                         
         *** CFOUR Program System (Release V0.1) ***                            
Carbon Monoxide DBOC calculation                                                
    2    2 X  Y       0.10E-08              0    0                              
   9999.00      3.00                                                            
          6.00000000    1    5    1    1    1    1    1                         
C #1  -0.000000000000000   0.000000000000000   1.090807987882902                
   16    9                                                                      
   33980.0000000000       9.100000000000000E-005 -1.900000000000000E-005        
  0.000000000000000E+000  0.000000000000000E+000  0.000000000000000E+000        
  0.000000000000000E+000  0.000000000000000E+000  0.000000000000000E+000        
  0.000000000000000E+000                                                        
   5089.00000000000       7.040000000000000E-004 -1.510000000000000E-004        
  0.000000000000000E+000  0.000000000000000E+000  0.000000000000000E+000        
  0.000000000000000E+000  0.000000000000000E+000  0.000000000000000E+000        
  0.000000000000000E+000                                                        
   1157.00000000000       3.693000000000000E-003 -7.850000000000000E-004        
  0.000000000000000E+000  0.000000000000000E+000  0.000000000000000E+000        
  0.000000000000000E+000  0.000000000000000E+000  0.000000000000000E+000        
  0.000000000000000E+000                                                        
   326.600000000000       1.536000000000000E-002 -3.324000000000000E-003        
  0.000000000000000E+000  0.000000000000000E+000  0.000000000000000E+000        
  0.000000000000000E+000  0.000000000000000E+000  0.000000000000000E+000        
  0.000000000000000E+000                                                        
   106.100000000000       5.292900000000000E-002 -1.151200000000000E-002        
  0.000000000000000E+000  0.000000000000000E+000  0.000000000000000E+000        
  0.000000000000000E+000  0.000000000000000E+000  0.000000000000000E+000        
  0.000000000000000E+000                                                        
   38.1100000000000       0.147043000000000      -3.416000000000000E-002        
  0.000000000000000E+000  0.000000000000000E+000  0.000000000000000E+000        
  0.000000000000000E+000  0.000000000000000E+000  0.000000000000000E+000        
  0.000000000000000E+000                                                        
   14.7500000000000       0.305631000000000      -7.717300000000001E-002        
  0.000000000000000E+000  0.000000000000000E+000  0.000000000000000E+000        
  0.000000000000000E+000  0.000000000000000E+000  0.000000000000000E+000        
  0.000000000000000E+000                                                        
   6.03500000000000       0.399345000000000      -0.141493000000000             
  0.000000000000000E+000  0.000000000000000E+000  0.000000000000000E+000        
  0.000000000000000E+000  0.000000000000000E+000  0.000000000000000E+000        
  0.000000000000000E+000                                                        
   2.53000000000000       0.217051000000000      -0.118019000000000             
  0.000000000000000E+000  0.000000000000000E+000  0.000000000000000E+000        
  0.000000000000000E+000  0.000000000000000E+000  0.000000000000000E+000        
  0.000000000000000E+000                                                        
  0.735500000000000       1.589400000000000E-002  0.273806000000000             
   1.00000000000000       0.000000000000000E+000  0.000000000000000E+000        
  0.000000000000000E+000  0.000000000000000E+000  0.000000000000000E+000        
  0.000000000000000E+000                                                        
  0.290500000000000      -3.084000000000000E-003  0.586510000000000             
  0.000000000000000E+000   1.00000000000000       0.000000000000000E+000        
  0.000000000000000E+000  0.000000000000000E+000  0.000000000000000E+000        
  0.000000000000000E+000                                                        
  0.111100000000000       9.779999999999999E-004  0.285430000000000             
  0.000000000000000E+000  0.000000000000000E+000   1.00000000000000             
  0.000000000000000E+000  0.000000000000000E+000  0.000000000000000E+000        
  0.000000000000000E+000                                                        
   7.21600000000000       0.000000000000000E+000  0.000000000000000E+000        
  0.000000000000000E+000  0.000000000000000E+000  0.000000000000000E+000        
   1.00000000000000       0.000000000000000E+000  0.000000000000000E+000        
  0.000000000000000E+000                                                        
   19.5700000000000       0.000000000000000E+000  0.000000000000000E+000        
  0.000000000000000E+000  0.000000000000000E+000  0.000000000000000E+000        
  0.000000000000000E+000   1.00000000000000       0.000000000000000E+000        
  0.000000000000000E+000                                                        
   53.0730000000000       0.000000000000000E+000  0.000000000000000E+000        
  0.000000000000000E+000  0.000000000000000E+000  0.000000000000000E+000        
  0.000000000000000E+000  0.000000000000000E+000   1.00000000000000             
  0.000000000000000E+000                                                        
  4.145000000000000E-002  0.000000000000000E+000  0.000000000000000E+000        
  0.000000000000000E+000  0.000000000000000E+000  0.000000000000000E+000        
  0.000000000000000E+000  0.000000000000000E+000  0.000000000000000E+000        
   1.00000000000000                                                             
   10    8                                                                      
   34.5100000000000       5.378000000000000E-003  0.000000000000000E+000        
  0.000000000000000E+000  0.000000000000000E+000  0.000000000000000E+000        
  0.000000000000000E+000  0.000000000000000E+000  0.000000000000000E+000        
   7.91500000000000       3.613200000000000E-002  0.000000000000000E+000        
  0.000000000000000E+000  0.000000000000000E+000  0.000000000000000E+000        
  0.000000000000000E+000  0.000000000000000E+000  0.000000000000000E+000        
   2.36800000000000       0.142493000000000       0.000000000000000E+000        
  0.000000000000000E+000  0.000000000000000E+000  0.000000000000000E+000        
  0.000000000000000E+000  0.000000000000000E+000  0.000000000000000E+000        
  0.813200000000000       0.342150000000000        1.00000000000000             
  0.000000000000000E+000  0.000000000000000E+000  0.000000000000000E+000        
  0.000000000000000E+000  0.000000000000000E+000  0.000000000000000E+000        
  0.289000000000000       0.463864000000000       0.000000000000000E+000        
   1.00000000000000       0.000000000000000E+000  0.000000000000000E+000        
  0.000000000000000E+000  0.000000000000000E+000  0.000000000000000E+000        
  0.100700000000000       0.250028000000000       0.000000000000000E+000        
  0.000000000000000E+000   1.00000000000000       0.000000000000000E+000        
  0.000000000000000E+000  0.000000000000000E+000  0.000000000000000E+000        
   8.18200000000000       0.000000000000000E+000  0.000000000000000E+000        
  0.000000000000000E+000  0.000000000000000E+000   1.00000000000000             
  0.000000000000000E+000  0.000000000000000E+000  0.000000000000000E+000        
   24.1860000000000       0.000000000000000E+000  0.000000000000000E+000        
  0.000000000000000E+000  0.000000000000000E+000  0.000000000000000E+000        
   1.00000000000000       0.000000000000000E+000  0.000000000000000E+000        
   71.4940000000000       0.000000000000000E+000  0.000000000000000E+000        
  0.000000000000000E+000  0.000000000000000E+000  0.000000000000000E+000        
  0.000000000000000E+000   1.00000000000000       0.000000000000000E+000        
  3.218000000000000E-002  0.000000000000000E+000  0.000000000000000E+000        
  0.000000000000000E+000  0.000000000000000E+000  0.000000000000000E+000        
  0.000000000000000E+000  0.000000000000000E+000   1.00000000000000             
    6    6                                                                      
   1.84800000000000        1.00000000000000       0.000000000000000E+000        
  0.000000000000000E+000  0.000000000000000E+000  0.000000000000000E+000        
  0.000000000000000E+000                                                        
  0.649000000000000       0.000000000000000E+000   1.00000000000000             
  0.000000000000000E+000  0.000000000000000E+000  0.000000000000000E+000        
  0.000000000000000E+000                                                        
  0.228000000000000       0.000000000000000E+000  0.000000000000000E+000        
   1.00000000000000       0.000000000000000E+000  0.000000000000000E+000        
  0.000000000000000E+000                                                        
   8.65600000000000       0.000000000000000E+000  0.000000000000000E+000        
  0.000000000000000E+000   1.00000000000000       0.000000000000000E+000        
  0.000000000000000E+000                                                        
   33.2130000000000       0.000000000000000E+000  0.000000000000000E+000        
  0.000000000000000E+000  0.000000000000000E+000   1.00000000000000             
  0.000000000000000E+000                                                        
  7.660000000000000E-002  0.000000000000000E+000  0.000000000000000E+000        
  0.000000000000000E+000  0.000000000000000E+000  0.000000000000000E+000        
   1.00000000000000                                                             
    4    4                                                                      
   1.41900000000000        1.00000000000000       0.000000000000000E+000        
  0.000000000000000E+000  0.000000000000000E+000                                
  0.485000000000000       0.000000000000000E+000   1.00000000000000             
  0.000000000000000E+000  0.000000000000000E+000                                
   24.6940000000000       0.000000000000000E+000  0.000000000000000E+000        
   1.00000000000000       0.000000000000000E+000                                
  0.187000000000000       0.000000000000000E+000  0.000000000000000E+000        
  0.000000000000000E+000   1.00000000000000                                     
    2    2                                                                      
   1.01100000000000        1.00000000000000       0.000000000000000E+000        
  0.424000000000000       0.000000000000000E+000   1.00000000000000             
          8.00000000    1    5    1    1    1    1    1                         
O #2   0.000000000000000   0.000000000000000  -0.727239250966326                
   16    9                                                                      
   61420.0000000000       9.000000000000001E-005 -2.000000000000000E-005        
  0.000000000000000E+000  0.000000000000000E+000  0.000000000000000E+000        
  0.000000000000000E+000  0.000000000000000E+000  0.000000000000000E+000        
  0.000000000000000E+000                                                        
   9199.00000000000       6.980000000000001E-004 -1.590000000000000E-004        
  0.000000000000000E+000  0.000000000000000E+000  0.000000000000000E+000        
  0.000000000000000E+000  0.000000000000000E+000  0.000000000000000E+000        
  0.000000000000000E+000                                                        
   2091.00000000000       3.664000000000000E-003 -8.290000000000000E-004        
  0.000000000000000E+000  0.000000000000000E+000  0.000000000000000E+000        
  0.000000000000000E+000  0.000000000000000E+000  0.000000000000000E+000        
  0.000000000000000E+000                                                        
   590.900000000000       1.521800000000000E-002 -3.508000000000000E-003        
  0.000000000000000E+000  0.000000000000000E+000  0.000000000000000E+000        
  0.000000000000000E+000  0.000000000000000E+000  0.000000000000000E+000        
  0.000000000000000E+000                                                        
   192.300000000000       5.242300000000000E-002 -1.215600000000000E-002        
  0.000000000000000E+000  0.000000000000000E+000  0.000000000000000E+000        
  0.000000000000000E+000  0.000000000000000E+000  0.000000000000000E+000        
  0.000000000000000E+000                                                        
   69.3200000000000       0.145921000000000      -3.626100000000000E-002        
  0.000000000000000E+000  0.000000000000000E+000  0.000000000000000E+000        
  0.000000000000000E+000  0.000000000000000E+000  0.000000000000000E+000        
  0.000000000000000E+000                                                        
   26.9700000000000       0.305258000000000      -8.299200000000000E-002        
  0.000000000000000E+000  0.000000000000000E+000  0.000000000000000E+000        
  0.000000000000000E+000  0.000000000000000E+000  0.000000000000000E+000        
  0.000000000000000E+000                                                        
   11.1000000000000       0.398508000000000      -0.152090000000000             
  0.000000000000000E+000  0.000000000000000E+000  0.000000000000000E+000        
  0.000000000000000E+000  0.000000000000000E+000  0.000000000000000E+000        
  0.000000000000000E+000                                                        
   4.68200000000000       0.216980000000000      -0.115331000000000             
  0.000000000000000E+000  0.000000000000000E+000  0.000000000000000E+000        
  0.000000000000000E+000  0.000000000000000E+000  0.000000000000000E+000        
  0.000000000000000E+000                                                        
   1.42800000000000       1.759400000000000E-002  0.288979000000000             
   1.00000000000000       0.000000000000000E+000  0.000000000000000E+000        
  0.000000000000000E+000  0.000000000000000E+000  0.000000000000000E+000        
  0.000000000000000E+000                                                        
  0.554700000000000      -2.502000000000000E-003  0.586128000000000             
  0.000000000000000E+000   1.00000000000000       0.000000000000000E+000        
  0.000000000000000E+000  0.000000000000000E+000  0.000000000000000E+000        
  0.000000000000000E+000                                                        
  0.206700000000000       9.540000000000000E-004  0.277624000000000             
  0.000000000000000E+000  0.000000000000000E+000   1.00000000000000             
  0.000000000000000E+000  0.000000000000000E+000  0.000000000000000E+000        
  0.000000000000000E+000                                                        
   12.9740000000000       0.000000000000000E+000  0.000000000000000E+000        
  0.000000000000000E+000  0.000000000000000E+000  0.000000000000000E+000        
   1.00000000000000       0.000000000000000E+000  0.000000000000000E+000        
  0.000000000000000E+000                                                        
   34.9000000000000       0.000000000000000E+000  0.000000000000000E+000        
  0.000000000000000E+000  0.000000000000000E+000  0.000000000000000E+000        
  0.000000000000000E+000   1.00000000000000       0.000000000000000E+000        
  0.000000000000000E+000                                                        
   93.8810000000000       0.000000000000000E+000  0.000000000000000E+000        
  0.000000000000000E+000  0.000000000000000E+000  0.000000000000000E+000        
  0.000000000000000E+000  0.000000000000000E+000   1.00000000000000             
  0.000000000000000E+000                                                        
  6.959000000000000E-002  0.000000000000000E+000  0.000000000000000E+000        
  0.000000000000000E+000  0.000000000000000E+000  0.000000000000000E+000        
  0.000000000000000E+000  0.000000000000000E+000  0.000000000000000E+000        
   1.00000000000000                                                             
   10    8                                                                      
   63.4200000000000       6.044000000000000E-003  0.000000000000000E+000        
  0.000000000000000E+000  0.000000000000000E+000  0.000000000000000E+000        
  0.000000000000000E+000  0.000000000000000E+000  0.000000000000000E+000        
   14.6600000000000       4.179900000000000E-002  0.000000000000000E+000        
  0.000000000000000E+000  0.000000000000000E+000  0.000000000000000E+000        
  0.000000000000000E+000  0.000000000000000E+000  0.000000000000000E+000        
   4.45900000000000       0.161143000000000       0.000000000000000E+000        
  0.000000000000000E+000  0.000000000000000E+000  0.000000000000000E+000        
  0.000000000000000E+000  0.000000000000000E+000  0.000000000000000E+000        
   1.53100000000000       0.356731000000000        1.00000000000000             
  0.000000000000000E+000  0.000000000000000E+000  0.000000000000000E+000        
  0.000000000000000E+000  0.000000000000000E+000  0.000000000000000E+000        
  0.530200000000000       0.448309000000000       0.000000000000000E+000        
   1.00000000000000       0.000000000000000E+000  0.000000000000000E+000        
  0.000000000000000E+000  0.000000000000000E+000  0.000000000000000E+000        
  0.175000000000000       0.244940000000000       0.000000000000000E+000        
  0.000000000000000E+000   1.00000000000000       0.000000000000000E+000        
  0.000000000000000E+000  0.000000000000000E+000  0.000000000000000E+000        
   14.4750000000000       0.000000000000000E+000  0.000000000000000E+000        
  0.000000000000000E+000  0.000000000000000E+000   1.00000000000000             
  0.000000000000000E+000  0.000000000000000E+000  0.000000000000000E+000        
   42.7300000000000       0.000000000000000E+000  0.000000000000000E+000        
  0.000000000000000E+000  0.000000000000000E+000  0.000000000000000E+000        
   1.00000000000000       0.000000000000000E+000  0.000000000000000E+000        
   126.140000000000       0.000000000000000E+000  0.000000000000000E+000        
  0.000000000000000E+000  0.000000000000000E+000  0.000000000000000E+000        
  0.000000000000000E+000   1.00000000000000       0.000000000000000E+000        
  5.348000000000000E-002  0.000000000000000E+000  0.000000000000000E+000        
  0.000000000000000E+000  0.000000000000000E+000  0.000000000000000E+000        
  0.000000000000000E+000  0.000000000000000E+000   1.00000000000000             
    6    6                                                                      
   3.77500000000000        1.00000000000000       0.000000000000000E+000        
  0.000000000000000E+000  0.000000000000000E+000  0.000000000000000E+000        
  0.000000000000000E+000                                                        
   1.30000000000000       0.000000000000000E+000   1.00000000000000             
  0.000000000000000E+000  0.000000000000000E+000  0.000000000000000E+000        
  0.000000000000000E+000                                                        
  0.444000000000000       0.000000000000000E+000  0.000000000000000E+000        
   1.00000000000000       0.000000000000000E+000  0.000000000000000E+000        
  0.000000000000000E+000                                                        
   14.9270000000000       0.000000000000000E+000  0.000000000000000E+000        
  0.000000000000000E+000   1.00000000000000       0.000000000000000E+000        
  0.000000000000000E+000                                                        
   57.5440000000000       0.000000000000000E+000  0.000000000000000E+000        
  0.000000000000000E+000  0.000000000000000E+000   1.00000000000000             
  0.000000000000000E+000                                                        
  0.154000000000000       0.000000000000000E+000  0.000000000000000E+000        
  0.000000000000000E+000  0.000000000000000E+000  0.000000000000000E+000        
   1.00000000000000                                                             
    4    4                                                                      
   2.66600000000000        1.00000000000000       0.000000000000000E+000        
  0.000000000000000E+000  0.000000000000000E+000                                
  0.859000000000000       0.000000000000000E+000   1.00000000000000             
  0.000000000000000E+000  0.000000000000000E+000                                
   26.4830000000000       0.000000000000000E+000  0.000000000000000E+000        
   1.00000000000000       0.000000000000000E+000                                
  0.324000000000000       0.000000000000000E+000  0.000000000000000E+000        
  0.000000000000000E+000   1.00000000000000                                     
    2    2                                                                      
   1.84600000000000        1.00000000000000       0.000000000000000E+000        
  0.714000000000000       0.000000000000000E+000   1.00000000000000             
FINISH                                                                          
 
********************************************************************************
 ONE- AND TWO-ELECTRON INTEGRALS OVER SYMMETRY-ADAPTED AOS ARE CALCULATED.

  SPHERICAL HARMONICS ARE USED.
  
  INTEGRALS LESS THAN  0.10E-13 ARE NEGLECTED.

  NUCLEAR REPULSION ENERGY :   26.4019542366 A.U.
  @MOLECU-I, ONE ELECTRON INTEGRALS (CPU/WALL):        0.07/       0.09 SECONDS.
  @TWOEL-I,    4689067 INTEGRALS OF SYMMETRY TYPE  I I I I
  @TWOEL-I,   20066426 INTEGRALS OF SYMMETRY TYPE  I J I J
  @TWOEL-I,   10578166 INTEGRALS OF SYMMETRY TYPE  I I J J
  @TWOEL-I,   14816520 INTEGRALS OF SYMMETRY TYPE  I J K L
  @TWOEL-I, TOTAL NUMBER OF 2-E INTEGRALS   50150179.
  @MOLECU-I, TWO ELECTRON INTEGRALS (CPU/WALL):      251.28/      34.20 SECONDS.
 @CHECKOUT-I, Total execution time (CPU/WALL):      251.36/      34.31 seconds.

Running with 14 threads/proc

--executable xvmol finished with status     0 in       34.34 seconds (walltime).
 --invoking executable--
/nfs/workspaces/public/cfour_mpi/bin/xvmol2ja
 @GETMEM-I,  Allocated    3814 MB of main memory.
 @CHECKOUT-I, Total execution time (CPU/WALL):        0.24/       0.05 seconds.
--executable xvmol2ja finished with status     0 in        0.10 seconds (walltime).
 --invoking executable--
/nfs/workspaces/public/cfour_mpi/bin/xvprop
 @GETMEM-I,  Allocated    3814 MB of main memory.
   Property integrals will be calculated.
    --------------------------------------------------------------
                                   Property evaluated at 
    Property type                X             Y             Z
    --------------------------------------------------------------
    Dipole moment               ----          ----          ----  
    Quadrupole moment           ----          ----          ----  
    Octopole moment             ----          ----          ----  
    Relativisitic corr.         ----          ----          ----  
    Second moment            0.0000000     0.0000000     0.0000000
    Electron density         0.0000000     0.0000000     1.0908080
    Electron density         0.0000000     0.0000000    -0.7272393
    Field gradient           0.0000000     0.0000000     1.0908080
    Field gradient           0.0000000     0.0000000    -0.7272393
    Potential                0.0000000     0.0000000     1.0908080
    Potential                0.0000000     0.0000000    -0.7272393
    --------------------------------------------------------------
 @CHECKOUT-I, Total execution time (CPU/WALL):        1.49/       1.50 seconds.
--executable xvprop finished with status     0 in        1.53 seconds (walltime).
 --invoking executable--
/nfs/workspaces/public/cfour_mpi/bin/xvscf
  There are  218 functions in the AO basis.

  There are 4 irreducible representations.

       Irrep        # of functions
         1                 86
         2                 52
         3                 52
         4                 28


  Parameters for SCF calculation: 
        SCF reference function:  RHF  
  Maximum number of iterations:  150
     Full symmetry point group: CXv 
     Computational point group: C2v 
        Initial density matrix: MOREAD                 
     SCF convergence tolerance: 10**(-10)
  DIIS convergence acceleration:  ON
          Latest start for DIIS:   8
                     DIIS order:   6

  Memory information:    2523578 words required.
  Fock matrices are constructed from AO integral file.
 @GETMEM-I,  Allocated      19 MB of main memory.
  Initialization and symmetry analysis required      0.001 seconds.

  Adding electric field perturbation to one-electron Hamiltonian.
  Field direction     : Z
  Field strength      :  0.0002000 a.u.

  @INITGES-I, Occupancies from core Hamiltonian:

          Alpha population by irrep:   5    1    1    0
           Beta population by irrep:   5    1    1    0


 total no. of electrons in initial guess :  0.000000000000000E+000
  --------------------------------------------------------------------
  Iteration         Total Energy            Largest Density Difference
  --------------------------------------------------------------------
       0            26.401808849775581              0.0000000000D+00
   current occupation vector 
     5  1  1  0
     5  1  1  0
       1           -90.118637659707687              0.2023729405D+02
   current occupation vector 
     5  1  1  0
     5  1  1  0
       2           -92.354130533838287              0.1133177241D+03
   current occupation vector 
     5  1  1  0
     5  1  1  0
       3          -104.309519785072908              0.1133317566D+03
   current occupation vector 
     4  2  1  0
     4  2  1  0
       4          -102.299376098030748              0.1566455094D+02
   current occupation vector 
     5  1  1  0
     5  1  1  0
       5          -106.357325252556066              0.1566325375D+02
   current occupation vector 
     4  2  1  0
     4  2  1  0
       6          -103.711984875293453              0.1136933288D+02
   current occupation vector 
     5  1  1  0
     5  1  1  0
       7          -105.094874233692522              0.1109040213D+02
   current occupation vector 
     5  1  1  0
     5  1  1  0
       8          -102.534040843135600              0.4933954664D+01
   current occupation vector 
     5  1  1  0
     5  1  1  0
       9          -112.065279201696470              0.3257779290D+01
   current occupation vector 
     5  1  1  0
     5  1  1  0
      10          -112.620233954242835              0.7052274287D+00
   current occupation vector 
     5  1  1  0
     5  1  1  0
      11          -112.714333835584554              0.2301411983D+00
   current occupation vector 
     5  1  1  0
     5  1  1  0
      12          -112.716576000663864              0.4546976137D-01
   current occupation vector 
     5  1  1  0
     5  1  1  0
      13          -112.716673082042504              0.1346790139D-01
   current occupation vector 
     5  1  1  0
     5  1  1  0
      14          -112.716681238466194              0.3887511112D-02
   current occupation vector 
     5  1  1  0
     5  1  1  0
      15          -112.716682634592232              0.2044250533D-02
   current occupation vector 
     5  1  1  0
     5  1  1  0
      16          -112.716682747446626              0.5550560276D-03
   current occupation vector 
     5  1  1  0
     5  1  1  0
      17          -112.716682751510703              0.1244280792D-03
   current occupation vector 
     5  1  1  0
     5  1  1  0
      18          -112.716682751603955              0.1337889330D-04
   current occupation vector 
     5  1  1  0
     5  1  1  0
      19          -112.716682751609014              0.1992700052D-05
   current occupation vector 
     5  1  1  0
     5  1  1  0
      20          -112.716682751608900              0.6233022862D-06
   current occupation vector 
     5  1  1  0
     5  1  1  0
      21          -112.716682751609468              0.1052155973D-06
   current occupation vector 
     5  1  1  0
     5  1  1  0
      22          -112.716682751607763              0.2544081679D-07
   current occupation vector 
     5  1  1  0
     5  1  1  0
      23          -112.716682751609184              0.5853950658D-08
   current occupation vector 
     5  1  1  0
     5  1  1  0
      24          -112.716682751608587              0.1987151776D-08
   current occupation vector 
     5  1  1  0
     5  1  1  0
      25          -112.716682751608133              0.9377669752D-09
   current occupation vector 
     5  1  1  0
     5  1  1  0
      26          -112.716682751608531              0.2237110497D-09
   current occupation vector 
     5  1  1  0
     5  1  1  0
      27          -112.716682751608673              0.3735730614D-09
   current occupation vector 
     5  1  1  0
     5  1  1  0
      28          -112.716682751608275              0.2378733321D-09
   current occupation vector 
     5  1  1  0
     5  1  1  0

  SCF has converged.

 Density matrix saved to file den.dat
 total electron number:   13.9999999999999     
     E(SCF)=      -112.716682751607706              0.8447986755D-10

  Eigenvector printing suppressed.

 @PUTMOS-I, Writing converged MOs to NEWMOS. 
 @PUTMOS-I, Symmetry   1 Full Blocks 21 Partial Blocksize   2
 @PUTMOS-I, Symmetry   2 Full Blocks 13 Partial Blocksize   0
 @PUTMOS-I, Symmetry   3 Full Blocks 13 Partial Blocksize   0
 @PUTMOS-I, Symmetry   4 Full Blocks  7 Partial Blocksize   0
 @PUTFOCK-I, Writing converged Fock matrix to NEWFOCK. 
 @PUTFOCK-I, Symmetry   1 Full Blocks 21 Partial Blocksize   2
 @PUTFOCK-I, Symmetry   2 Full Blocks 13 Partial Blocksize   0
 @PUTFOCK-I, Symmetry   3 Full Blocks 13 Partial Blocksize   0
 @PUTFOCK-I, Symmetry   4 Full Blocks  7 Partial Blocksize   0


 
  ORBITAL EIGENVALUES (ALPHA)  (1H = 27.2113834 eV)

       MO #        E(hartree)               E(eV)           FULLSYM    COMPSYM
       ----   --------------------   --------------------   -------   ---------
    1     1         -20.6523840838        -561.9799414294     SG+        A1 (1)
    2     2         -11.2844215796        -307.0647220493     SG+        A1 (1)
    3     3          -1.6395386527         -44.6141148771     SG+        A1 (1)
    4     4          -0.8188351843         -22.2816381417     SG+        A1 (1)
    5    87          -0.7239523302         -19.6997444218      PI        B1 (2)
    6   139          -0.7239523302         -19.6997444217      PI        B2 (3)
    7     5          -0.5303945889         -14.4327705127     SG+        A1 (1)
  +++++++++++++++++++++++++++++++++++++++++++++++++++++++++++++++++++++++++++++
    8     6           0.0565674935           1.5392797538     SG+        A1 (1)
    9   140           0.0653034522           1.7769972747      PI        B2 (3)
   10    88           0.0653034522           1.7769972747      PI        B1 (2)
   11     7           0.0779750882           2.1218100212     SG+        A1 (1)
   12   141           0.1543399581           4.1998037746      PI        B2 (3)
   13    89           0.1543399581           4.1998037746      PI        B1 (2)
   14     8           0.1559476581           4.2435515145     SG+        A1 (1)
   15    90           0.1992259691           5.4212142279      PI        B1 (2)
   16   142           0.1992259691           5.4212142279      PI        B2 (3)
   17     9           0.2264890913           6.1630814996     SG+        A1 (1)
   18   191           0.2275679673           6.1924392065      DE        A2 (4)
   19    10           0.2275679673           6.1924392065      DE        A1 (1)
   20    11           0.3028652034           8.2413811684     SG+        A1 (1)
   21   143           0.3425214168           9.3204815949      PI        B2 (3)
   22    91           0.3425214168           9.3204815949      PI        B1 (2)
   23    12           0.3988037015          10.8520004220     SG+        A1 (1)
   24   144           0.4048874001          11.0175462793      PI        B2 (3)
   25    92           0.4048874001          11.0175462793      PI        B1 (2)
   26    13           0.5074587237          13.8086538912     SG+        A1 (1)
   27   192           0.5215695382          14.1926286727      DE        A2 (4)
   28    14           0.5215695382          14.1926286727      DE        A1 (1)
   29    93           0.6177565004          16.8100089803      PI        B1 (2)
   30   145           0.6177565004          16.8100089803      PI        B2 (3)
   31    15           0.6608435361          17.9824668295     SG+        A1 (1)
   32   146           0.7504312566          20.4202726395      PH        B2 (3)
   33    94           0.7504312566          20.4202726395      PH        B1 (2)
   34   193           0.7703879354          20.9633214768      DE        A2 (4)
   35    16           0.7703879354          20.9633214768      DE        A1 (1)
   36    17           0.7933369344          21.5877954880     SG+        A1 (1)
   37    95           0.8455431990          23.0084001696      PI        B1 (2)
   38   147           0.8455431990          23.0084001696      PI        B2 (3)
   39   148           0.8707791186          23.6951044542      PI        B2 (3)
   40    96           0.8707791186          23.6951044542      PI        B1 (2)
   41    18           0.8788279206          23.9141234902     SG+        A1 (1)
   42    19           0.9061103159          24.6565152082      DE        A1 (1)
   43   194           0.9061103159          24.6565152082      DE        A2 (4)
   44    20           0.9615693267          26.1656316149     SG+        A1 (1)
   45    97           1.1225954816          30.5473760530      PI        B1 (2)
   46   149           1.1225954816          30.5473760530      PI        B2 (3)
   47    21           1.3424311319          36.5294082193     SG+        A1 (1)
   48    98           1.4582240639          39.6802940849      PH        B1 (2)
   49   150           1.4582240639          39.6802940849      PH        B2 (3)
   50    22           1.4974170963          40.7467907158      DE        A1 (1)
   51   195           1.4974170963          40.7467907159      DE        A2 (4)
   52    99           1.5272902434          41.5596803749      PI        B1 (2)
   53   151           1.5272902434          41.5596803749      PI        B2 (3)
   54    23           1.5593272727          42.4314522634     SG+        A1 (1)
   55    24           1.6568539222          45.0852873146     SG+        A1 (1)
   56    25           1.7630906746          47.9761363160     SG+        A1 (1)
   57    26           1.7753781453          48.3104953924      DE        A1 (1)
   58   196           1.7753781453          48.3104953924      DE        A2 (4)
   59   152           1.8642018218          50.7275105074      PI        B2 (3)
   60   100           1.8642018218          50.7275105074      PI        B1 (2)
   61   153           1.9924647051          54.2177210010      PI        B2 (3)
   62   101           1.9924647051          54.2177210010      PI        B1 (2)
   63   197           2.1152662078          57.5593197739      PI        A2 (4)
   64    27           2.1152662078          57.5593197739      PI        A1 (1)
   65    28           2.2269617868          60.5987109973     SG+        A1 (1)
   66    29           2.2356918863          60.8362690826      DE        A1 (1)
   67   198           2.2356918863          60.8362690826      DE        A2 (4)
   68   102           2.2635903506          61.5954248920      PH        B1 (2)
   69   154           2.2635903506          61.5954248920      PH        B2 (3)
   70    30           2.3447410668          63.8036481419     SG+        A1 (1)
   71   103           2.3548610808          64.0790277233      PI        B1 (2)
   72   155           2.3548610808          64.0790277233      PI        B2 (3)
   73    31           2.3891715577          65.0126632638      DE        A1 (1)
   74   199           2.3891715577          65.0126632638      DE        A2 (4)
   75   104           2.4278311593          66.0646445062      PH        B1 (2)
   76   156           2.4278311593          66.0646445062      PH        B2 (3)
   77    32           2.6049329857          70.8838302062     SG+        A1 (1)
   78   105           2.6113473067          71.0583727537      PI        B1 (2)
   79   157           2.6113473067          71.0583727537      PI        B2 (3)
   80   158           3.0241137448          82.2903185545      PI        B2 (3)
   81   106           3.0241137448          82.2903185545      PI        B1 (2)
   82   200           3.1393029133          85.4247751824      DE        A2 (4)
   83    33           3.1393029133          85.4247751825      DE        A1 (1)
   84    34           3.1542856027          85.8324748885     SG+        A1 (1)
   85    35           3.3752720762          91.8458225445     SG+        A1 (1)
   86   107           3.7497547320         102.0360136677      PI        B1 (2)
   87   159           3.7497547320         102.0360136677      PI        B2 (3)
   88    36           3.7678180635         102.5275419067      PI        A1 (1)
   89   201           3.7678180635         102.5275419068      PI        A2 (4)
   90    37           3.9986310329         108.8082821100     SG+        A1 (1)
   91   108           4.0634960288         110.5733483847      PH        B1 (2)
   92   160           4.0634960288         110.5733483847      PH        B2 (3)
   93    38           4.1807683447         113.7644903345      DE        A1 (1)
   94   202           4.1807683447         113.7644903345      DE        A2 (4)
   95   109           4.2142300174         114.6750287401      PI        B1 (2)
   96   161           4.2142300174         114.6750287401      PI        B2 (3)
   97    39           4.3399298368         118.0954947180     SG+        A1 (1)
   98    40           4.4572640363         121.2883206076      DE        A1 (1)
   99   203           4.4572640363         121.2883206077      DE        A2 (4)
  100   162           4.4859220790         122.0681455938      PH        B2 (3)
  101   110           4.4859220790         122.0681455938      PH        B1 (2)
  102    41           4.6988207384         127.8614126410     SG+        A1 (1)
  103   111           4.8903161548         133.0722678352      PI        B1 (2)
  104   163           4.8903161548         133.0722678353      PI        B2 (3)
  105    42           5.1002612895         138.7851653881     SG+        A1 (1)
  106    43           5.2035634814         141.5961609391      DE        A1 (1)
  107   204           5.2035634814         141.5961609392      DE        A2 (4)
  108   112           5.3283908464         144.9928862277      PI        B1 (2)
  109   164           5.3283908464         144.9928862277      PI        B2 (3)
  110    44           5.9270594713         161.2834877092      PI        A1 (1)
  111   205           5.9270594713         161.2834877092      PI        A2 (4)
  112   165           5.9945929494         163.1211670729      PI        B2 (3)
  113   113           5.9945929494         163.1211670729      PI        B1 (2)
  114    45           6.1589556640         167.5937039157     SG+        A1 (1)
  115   166           6.3013929761         171.4696202263      PH        B2 (3)
  116   114           6.3013929761         171.4696202263      PH        B1 (2)
  117    46           6.3365990113         172.4276251490     SG+        A1 (1)
  118    47           6.3418458848         172.5703998355      DE        A1 (1)
  119   206           6.3418458848         172.5703998355      DE        A2 (4)
  120   115           6.4029877036         174.2341533094      PI        B1 (2)
  121   167           6.4029877036         174.2341533094      PI        B2 (3)
  122   168           6.5221782477         177.4774929001      PH        B2 (3)
  123   116           6.5221782477         177.4774929001      PH        B1 (2)
  124   207           6.7465413555         183.5827234496      DE        A2 (4)
  125    48           6.7465413556         183.5827234499      DE        A1 (1)
  126    49           7.1477353892         194.4997681181     SG+        A1 (1)
  127   169           7.9278339570         215.7273293352      PI        B2 (3)
  128   117           7.9278339570         215.7273293353      PI        B1 (2)
  129   208           8.0687105143         219.5607753496      DE        A2 (4)
  130    50           8.0687105144         219.5607753496      DE        A1 (1)
  131    51           8.5013244233         231.3327982911     SG+        A1 (1)
  132    52           8.8399770259         240.5480040983     SG+        A1 (1)
  133   118           8.9513049355         243.5773905294      PI        B1 (2)
  134   170           8.9513049355         243.5773905294      PI        B2 (3)
  135    53           9.8635565114         268.4010179196     SG+        A1 (1)
  136   171          10.1831474265         277.0975288420      PI        B2 (3)
  137   119          10.1831474265         277.0975288421      PI        B1 (2)
  138    54          10.6056027754         288.5931233092      PI        A1 (1)
  139   209          10.6056027754         288.5931233092      PI        A2 (4)
  140   172          11.0399363746         300.4119413997      PH        B2 (3)
  141   120          11.0399363746         300.4119413997      PH        B1 (2)
  142    55          11.3398632041         308.5733653504      DE        A1 (1)
  143   210          11.3398632041         308.5733653504      DE        A2 (4)
  144    56          11.3762116114         309.5624557971     SG+        A1 (1)
  145   121          11.4582254034         311.7941645356      PI        B1 (2)
  146   173          11.4582254034         311.7941645356      PI        B2 (3)
  147   174          11.8722343748         323.0599213875      PH        B2 (3)
  148   122          11.8722343748         323.0599213875      PH        B1 (2)
  149   211          12.4607320638         339.0737576320      DE        A2 (4)
  150    57          12.4607320638         339.0737576323      DE        A1 (1)
  151    58          12.7895422445         348.0211375268     SG+        A1 (1)
  152    59          13.1245952444         357.1383931660      DE        A1 (1)
  153   212          13.1245952444         357.1383931661      DE        A2 (4)
  154   175          13.1856956778         358.8010204839      PI        B2 (3)
  155   123          13.1856956778         358.8010204839      PI        B1 (2)
  156    60          14.1115828750         383.9956919937     SG+        A1 (1)
  157   176          15.1317689883         411.7563674596      PI        B2 (3)
  158   124          15.1317689883         411.7563674597      PI        B1 (2)
  159    61          15.6587843494         426.0971845100     SG+        A1 (1)
  160    62          18.8621152888         513.2642508575     SG+        A1 (1)
  161   177          19.6765755823         535.4268421698      PI        B2 (3)
  162   125          19.6765755823         535.4268421698      PI        B1 (2)
  163    63          21.5456322994         586.2864610931     SG+        A1 (1)
  164   213          26.7483999845         727.8609673140      DE        A2 (4)
  165    64          26.7483999845         727.8609673144      DE        A1 (1)
  166   126          27.7477504490         755.0546759555      PI        B1 (2)
  167   178          27.7477504490         755.0546759555      PI        B2 (3)
  168    65          29.0023710876         789.1946391748     SG+        A1 (1)
  169   179          33.9856707874         924.7971179021      PI        B2 (3)
  170   127          33.9856707874         924.7971179028      PI        B1 (2)
  171    66          36.0616196968         981.2865595934     SG+        A1 (1)
  172    67          37.4622662471        1019.4000898828     SG+        A1 (1)
  173    68          47.2133692594        1284.7410925242      DE        A1 (1)
  174   214          47.2133692594        1284.7410925242      DE        A2 (4)
  175   128          48.1713813485        1310.8099267822      PI        B1 (2)
  176   180          48.1713813485        1310.8099267822      PI        B2 (3)
  177    69          48.8087035643        1328.1523459452     SG+        A1 (1)
  178    70          64.8974906876        1765.9505007982     SG+        A1 (1)
  179   129          67.1079355610        1826.0997637339      PI        B1 (2)
  180   181          67.1079355610        1826.0997637340      PI        B2 (3)
  181    71          68.5263487276        1864.6967482285     SG+        A1 (1)
  182   130          98.7651529414        2687.5364432488      PH        B1 (2)
  183   182          98.7651529414        2687.5364432488      PH        B2 (3)
  184   215          98.8129164551        2688.8361545314      DE        A2 (4)
  185    72          98.8129164551        2688.8361545315      DE        A1 (1)
  186   183          98.8747733258        2690.5193655553      PI        B2 (3)
  187   131          98.8747733258        2690.5193655553      PI        B1 (2)
  188    73          98.9239694631        2691.8580605104     SG+        A1 (1)
  189   132         103.3008046526        2810.9578009316      PH        B1 (2)
  190   184         103.3008046526        2810.9578009316      PH        B2 (3)
  191    74         103.3706977169        2812.8596878987      DE        A1 (1)
  192   216         103.3706977169        2812.8596878992      DE        A2 (4)
  193   133         103.4489312561        2814.9885307312      PI        B1 (2)
  194   185         103.4489312561        2814.9885307312      PI        B2 (3)
  195    75         103.5552650676        2817.8820208420     SG+        A1 (1)
  196   217         115.3469931786        3138.7512554206      DE        A2 (4)
  197    76         115.3469931786        3138.7512554206      DE        A1 (1)
  198   186         115.8364817133        3152.0709156070      PI        B2 (3)
  199   134         115.8364817133        3152.0709156070      PI        B1 (2)
  200    77         116.3378550092        3165.7139765895     SG+        A1 (1)
  201   187         117.2115012879        3189.4871004358      PI        B2 (3)
  202   135         117.2115012880        3189.4871004363      PI        B1 (2)
  203    78         119.1028919594        3240.9544571559     SG+        A1 (1)
  204    79         123.3907596331        3357.6332683941     SG+        A1 (1)
  205    80         198.6445655439        5405.3934333404      DE        A1 (1)
  206   218         198.6445655439        5405.3934333405      DE        A2 (4)
  207   136         199.1740083552        5419.8003046681      PI        B1 (2)
  208   188         199.1740083552        5419.8003046685      PI        B2 (3)
  209    81         199.5280865831        5429.4352630821     SG+        A1 (1)
  210    82         217.3070626070        5913.2257961268     SG+        A1 (1)
  211   137         225.5000766423        6136.1690422443      PI        B1 (2)
  212   189         225.5000766423        6136.1690422444      PI        B2 (3)
  213    83         226.6443243335        6167.3056048716     SG+        A1 (1)
  214   190         395.6326597730       10765.7119906462      PI        B2 (3)
  215   138         395.6326597731       10765.7119906466      PI        B1 (2)
  216    84         397.0044897218       10803.0413813426     SG+        A1 (1)
  217    85         509.8196890652       13872.8990240224     SG+        A1 (1)
  218    86         896.1762181214       24386.1946652621     SG+        A1 (1)


  VSCF finished.

 @CHECKOUT-I, Total execution time (CPU/WALL):       51.94/      12.38 seconds.
--executable xvscf finished with status     0 in       12.41 seconds (walltime).
 --invoking executable--
/nfs/workspaces/public/cfour_mpi/bin/xvtran
 @GETMEM-I,  Allocated    3814 MB of main memory.
  Full RHF integral transformation
  Transformation of IIII integrals :
  1 pass through the AO integral file was required.
     4689067 AO integrals were read.
     8896718 MO integrals were written to HF2.
  Transformation of IIJJ integrals :
  1 pass through the AO integral file was required.
    10578166 AO integrals were read.
    14720301 MO integrals were written to HF2.
  Transformation of IJIJ integrals :
  1 pass through the AO integral file was required.
    20066426 AO integrals were read.
    27914349 MO integrals were written to HF2.
  Transformation of IJKL integrals :
  1 pass through the AO integral file was required.
    14816520 AO integrals were read.
    18875654 MO integrals were written to HF2.
  Summary of active molecular orbitals: 
------------------------------------------------------------------------
 
  Index      Eigenvalue    Symmetry    Index      Eigenvalue    Symmetry
------------------------------------------------------------------------
     1       -20.6523841        1       110         4.2142300        2
     2       -11.2844216        1       111         4.4859221        2
     3        -1.6395387        1       112         4.8903162        2
     4        -0.8188352        1       113         5.3283908        2
     5        -0.5303946        1       114         5.9945929        2
     6        -0.7239523        2       115         6.3013930        2
     7        -0.7239523        3       116         6.4029877        2
     8         0.0565675        1       117         6.5221782        2
     9         0.0779751        1       118         7.9278340        2
    10         0.1559477        1       119         8.9513049        2
    11         0.2264891        1       120        10.1831474        2
    12         0.2275680        1       121        11.0399364        2
    13         0.3028652        1       122        11.4582254        2
    14         0.3988037        1       123        11.8722344        2
    15         0.5074587        1       124        13.1856957        2
    16         0.5215695        1       125        15.1317690        2
    17         0.6608435        1       126        19.6765756        2
    18         0.7703879        1       127        27.7477504        2
    19         0.7933369        1       128        33.9856708        2
    20         0.8788279        1       129        48.1713813        2
    21         0.9061103        1       130        67.1079356        2
    22         0.9615693        1       131        98.7651529        2
    23         1.3424311        1       132        98.8747733        2
    24         1.4974171        1       133       103.3008047        2
    25         1.5593273        1       134       103.4489313        2
    26         1.6568539        1       135       115.8364817        2
    27         1.7630907        1       136       117.2115013        2
    28         1.7753781        1       137       199.1740084        2
    29         2.1152662        1       138       225.5000766        2
    30         2.2269618        1       139       395.6326598        2
    31         2.2356919        1       140         0.0653035        3
    32         2.3447411        1       141         0.1543400        3
    33         2.3891716        1       142         0.1992260        3
    34         2.6049330        1       143         0.3425214        3
    35         3.1393029        1       144         0.4048874        3
    36         3.1542856        1       145         0.6177565        3
    37         3.3752721        1       146         0.7504313        3
    38         3.7678181        1       147         0.8455432        3
    39         3.9986310        1       148         0.8707791        3
    40         4.1807683        1       149         1.1225955        3
    41         4.3399298        1       150         1.4582241        3
    42         4.4572640        1       151         1.5272902        3
    43         4.6988207        1       152         1.8642018        3
    44         5.1002613        1       153         1.9924647        3
    45         5.2035635        1       154         2.2635904        3
    46         5.9270595        1       155         2.3548611        3
    47         6.1589557        1       156         2.4278312        3
    48         6.3365990        1       157         2.6113473        3
    49         6.3418459        1       158         3.0241137        3
    50         6.7465414        1       159         3.7497547        3
    51         7.1477354        1       160         4.0634960        3
    52         8.0687105        1       161         4.2142300        3
    53         8.5013244        1       162         4.4859221        3
    54         8.8399770        1       163         4.8903162        3
    55         9.8635565        1       164         5.3283908        3
    56        10.6056028        1       165         5.9945929        3
    57        11.3398632        1       166         6.3013930        3
    58        11.3762116        1       167         6.4029877        3
    59        12.4607321        1       168         6.5221782        3
    60        12.7895422        1       169         7.9278340        3
    61        13.1245952        1       170         8.9513049        3
    62        14.1115829        1       171        10.1831474        3
    63        15.6587843        1       172        11.0399364        3
    64        18.8621153        1       173        11.4582254        3
    65        21.5456323        1       174        11.8722344        3
    66        26.7484000        1       175        13.1856957        3
    67        29.0023711        1       176        15.1317690        3
    68        36.0616197        1       177        19.6765756        3
    69        37.4622662        1       178        27.7477504        3
    70        47.2133693        1       179        33.9856708        3
    71        48.8087036        1       180        48.1713813        3
    72        64.8974907        1       181        67.1079356        3
    73        68.5263487        1       182        98.7651529        3
    74        98.8129165        1       183        98.8747733        3
    75        98.9239695        1       184       103.3008047        3
    76       103.3706977        1       185       103.4489313        3
    77       103.5552651        1       186       115.8364817        3
    78       115.3469932        1       187       117.2115013        3
    79       116.3378550        1       188       199.1740084        3
    80       119.1028920        1       189       225.5000766        3
    81       123.3907596        1       190       395.6326598        3
    82       198.6445655        1       191         0.2275680        4
    83       199.5280866        1       192         0.5215695        4
    84       217.3070626        1       193         0.7703879        4
    85       226.6443243        1       194         0.9061103        4
    86       397.0044897        1       195         1.4974171        4
    87       509.8196891        1       196         1.7753781        4
    88       896.1762181        1       197         2.1152662        4
    89         0.0653035        2       198         2.2356919        4
    90         0.1543400        2       199         2.3891716        4
    91         0.1992260        2       200         3.1393029        4
    92         0.3425214        2       201         3.7678181        4
    93         0.4048874        2       202         4.1807683        4
    94         0.6177565        2       203         4.4572640        4
    95         0.7504313        2       204         5.2035635        4
    96         0.8455432        2       205         5.9270595        4
    97         0.8707791        2       206         6.3418459        4
    98         1.1225955        2       207         6.7465414        4
    99         1.4582241        2       208         8.0687105        4
   100         1.5272902        2       209        10.6056028        4
   101         1.8642018        2       210        11.3398632        4
   102         1.9924647        2       211        12.4607321        4
   103         2.2635904        2       212        13.1245952        4
   104         2.3548611        2       213        26.7484000        4
   105         2.4278312        2       214        47.2133693        4
   106         2.6113473        2       215        98.8129165        4
   107         3.0241137        2       216       103.3706977        4
   108         3.7497547        2       217       115.3469932        4
   109         4.0634960        2       218       198.6445655        4
------------------------------------------------------------------------
  -20.6523840838407       -11.2844215795828       -1.63953865267641     
 -0.818835184310609      -0.530394588930242      -0.723952330249935     
 -0.723952330249542       5.656749350768541E-002  7.797508822083418E-002
  0.155947658087376       0.226489091312960       0.227567967254032     
  0.302865203404575       0.398803701470012       0.507458723735573     
  0.521569538161688       0.660843536145223       0.770387935394822     
  0.793336934424483       0.878827920605244       0.906110315883549     
  0.961569326712974        1.34243113193774        1.49741709625264     
   1.55932727269480        1.65685392219248        1.76309067461650     
   1.77537814532401        2.11526620781393        2.22696178678388     
   2.23569188630865        2.34474106678174        2.38917155765797     
   2.60493298573789        3.13930291329803        3.15428560271243     
   3.37527207618819        3.76781806347812        3.99863103285017     
   4.18076834471051        4.33992983678940        4.45726403633069     
   4.69882073841904        5.10026128947703        5.20356348141779     
   5.92705947133832        6.15895566396374        6.33659901131785     
   6.34184588481764        6.74654135555260        7.14773538923079     
   8.06871051435138        8.50132442333250        8.83997702587746     
   9.86355651141149        10.6056027753899        11.3398632041012     
   11.3762116113903        12.4607320637850        12.7895422445449     
[...]
 Convergence information after     6 iterations: 
 Largest element of residual vector : -0.37883049E-03.
 Largest element of DIIS residual   : -0.96700317E-04.
 Convergence information after     7 iterations: 
 Largest element of residual vector : -0.65927887E-04.
 Largest element of DIIS residual   : -0.29105734E-04.
 Convergence information after     8 iterations: 
 Largest element of residual vector : -0.17944409E-04.
 Largest element of DIIS residual   :  0.11434151E-04.
 Convergence information after     9 iterations: 
 Largest element of residual vector :  0.57922857E-05.
 Largest element of DIIS residual   :  0.26765024E-05.
 Convergence information after    10 iterations: 
 Largest element of residual vector :  0.21450678E-05.
 Largest element of DIIS residual   :  0.11832928E-05.
 Convergence information after    11 iterations: 
 Largest element of residual vector :  0.60628509E-06.
 Largest element of DIIS residual   :  0.32879878E-06.
 Convergence information after    12 iterations: 
 Largest element of residual vector :  0.24403484E-06.
 Largest element of DIIS residual   :  0.15925881E-06.
 Convergence information after    13 iterations: 
 Largest element of residual vector :  0.10083462E-06.
 Largest element of DIIS residual   :  0.78623104E-07.
 Perturbed amplitude equations converged in    13 iterations.
  Dominant contributions to perturbed wavefunction:
    7    7  142   37   0.2594503918 ABAB
    7    7   37  142   0.2594503918 ABAB
    7    7  142   63   0.2096945748 ABAB
    7    7   63  142   0.2096945748 ABAB
    5    5  142   43   0.1878078072 ABAB
    5    5   43  142   0.1878078072 ABAB
    7    7  142   48   0.1849059363 ABAB
    7    7   48  142   0.1849059363 ABAB
    7    7  142   27   0.1808541565 ABAB
    7    7   27  142   0.1808541565 ABAB
    7    6   37   91   0.1782355281 ABAB
    6    7   91   37   0.1782355281 ABAB
    5    5  142   54   0.1669522498 ABAB
    5    5   54  142   0.1669522498 ABAB
    7    7  142   43   0.1618786652 ABAB
    7    7   43  142   0.1618786652 ABAB
    7    7  143   37   0.1588780299 ABAB
    7    7   37  143   0.1588780299 ABAB
    5    5  142   30  -0.1528430409 ABAB
    5    5   30  142  -0.1528430409 ABAB
  norm of converged amps    2.93006465774480     
 Starting iterative solution of the perturbed Lambda equations.
 The DIIS procedure is used to accelerate convergence.
 Convergence criterion is 10**(-7).
 Maximum number of iterations is 100.
 Convergence information after     1 iterations: 
 Largest element of residual vector : -0.59827803E-01.
 Largest element of DIIS residual   : -0.59827803E-01.
 Convergence information after     2 iterations: 
 Largest element of residual vector :  0.57058666E-02.
 Largest element of DIIS residual   :  0.63505001E-02.
 Convergence information after     3 iterations: 
 Largest element of residual vector : -0.35735391E-02.
 Largest element of DIIS residual   : -0.31776990E-02.
 Convergence information after     4 iterations: 
 Largest element of residual vector : -0.22120402E-02.
 Largest element of DIIS residual   : -0.16535970E-02.
 Convergence information after     5 iterations: 
 Largest element of residual vector : -0.11513561E-02.
 Largest element of DIIS residual   : -0.51063988E-03.
 Convergence information after     6 iterations: 
 Largest element of residual vector : -0.35202717E-03.
 Largest element of DIIS residual   : -0.86209410E-04.
 Convergence information after     7 iterations: 
 Largest element of residual vector : -0.58689944E-04.
 Largest element of DIIS residual   : -0.24209833E-04.
 Convergence information after     8 iterations: 
 Largest element of residual vector : -0.14500097E-04.
 Largest element of DIIS residual   :  0.99914679E-05.
 Convergence information after     9 iterations: 
 Largest element of residual vector :  0.51438631E-05.
 Largest element of DIIS residual   :  0.23420781E-05.
 Convergence information after    10 iterations: 
 Largest element of residual vector :  0.18730134E-05.
 Largest element of DIIS residual   :  0.10586828E-05.
 Convergence information after    11 iterations: 
 Largest element of residual vector :  0.55671732E-06.
 Largest element of DIIS residual   :  0.31404240E-06.
 Convergence information after    12 iterations: 
 Largest element of residual vector :  0.22803564E-06.
 Largest element of DIIS residual   :  0.14763130E-06.
 Convergence information after    13 iterations: 
 Largest element of residual vector :  0.94202611E-07.
 Largest element of DIIS residual   :  0.71187155E-07.
 Perturbed Lambda equations converged in    13 iterations.
  Dominant contributions to perturbed wavefunction:
    7    7  142   37   0.2497426288 ABAB
    7    7   37  142   0.2497426288 ABAB
    7    7  142   63   0.2016249461 ABAB
    7    7   63  142   0.2016249461 ABAB
    5    5  142   43   0.1803474084 ABAB
    5    5   43  142   0.1803474084 ABAB
    7    7  142   48   0.1779618309 ABAB
    7    7   48  142   0.1779618309 ABAB
    7    7  142   27   0.1734484129 ABAB
    7    7   27  142   0.1734484129 ABAB
    7    6   37   91   0.1698730544 ABAB
    6    7   91   37   0.1698730544 ABAB
    5    5  142   54   0.1602701218 ABAB
    5    5   54  142   0.1602701218 ABAB
    7    7  142   43   0.1543998504 ABAB
    7    7   43  142   0.1543998504 ABAB
    7    7  143   37   0.1535813521 ABAB
    7    7   37  143   0.1535813521 ABAB
    5    5  142   30  -0.1469705195 ABAB
    5    5   30  142  -0.1469705195 ABAB
        The DBOC first-order density matrix is being calculated 
             (Symmetry block 3, perturbation   2)
 term   10.2805655988351     
 final tnorm  0.906361746069521     
  norm contr. I: |<0|L dT/dx|0>|^2   0.000000000000000E+000
  norm contr. II: <0|[nabla(1+L)e-T][nabla e^T]|0>   10.2805655988351     
  total norm contribution   10.2805655988351     
 oo  1.214350469981743E-002
 vv  -68.6276639421463     
 vo  1.687787753910622E-002
  Correlated perturbed 1-el contribution to DBOC  -68.5986425599073       cm**-1
  SUM_I |dc_I/dx|^2 contribution to DBOC   34.3925914205009       cm**-1
 
 
  The total diagonal Born-Oppenheimer correction (DBOC) is:      0.0038884940 a.u.
  The total diagonal Born-Oppenheimer correction (DBOC) is:        853.425798 cm-1
 
 Total CC energy including DBOC  -113.193754147561     
 First-order density matrix is being calculated  (Symmetry block 3, perturbation   2)
 Calculation of the contributions of <pq||rs> to dI(i,j)/dx required   1.6 seconds.
 Calculation of the contributions of <pq||rs> to dI(a,b)/dx required  16.0 seconds.
 Calculation of the contributions of <pq||rs> to dI(i,a)/dx required   9.4 seconds.
 First-order Z-vector equations are solved for 1 perturbation.
 Convergence reached after  17 iterations.
        U*G(pq,rs) contribution is being calculated
             (Symmetry block 3, perturbation   2)

 CCSD contribution to force constants 

        0.0000000000        0.0000000000        0.0000000000
        0.0000000000        0.0000000000        0.0000000000
        0.0000000000        0.0000000000        0.0000000000
        0.0000000000        0.0000000000        0.0000000000
        0.0000000000        0.0000000000        0.0000000000
        0.0000000000        0.0000000000        0.0000000000
        0.0000000000        0.0000000000        0.0000000000
        0.0000000000        0.0000000000        0.0000000000
        0.0000000000        0.0000000000        0.0000000000
        0.0000000000        0.0000000000        0.0000000000
        0.0000000000        0.0000000000        0.0000000000
        0.0000000000      -14.1288772962       14.1288772962

 CCSD contribution to dipole derivatives 

        0.0000000000        0.0000000000        0.0000000000
        0.0000000000        0.0000000000        0.0000000000
        0.0000000000        0.0000000000        0.0000000000
        0.0000000000        0.0000000000       -0.0374059041
        0.0000000000        0.0000000000        0.0000000000
        0.0000000000        0.0000000000        0.0000000000
 @CHECKOUT-I, Total execution time (CPU/WALL):     1118.02/     447.24 seconds.
--executable xsdcc finished with status     0 in      447.48 seconds (walltime).
 --invoking executable--
/nfs/workspaces/public/cfour_mpi/bin/xanti
 @GETMEM-I,  Allocated    3814 MB of main memory.
 CCSD MO derivative gammas will be sorted to Mulliken order.
 @CHECKOUT-I, Total execution time (CPU/WALL):       12.81/      25.83 seconds.
--executable xanti finished with status     0 in       25.94 seconds (walltime).
 --invoking executable--
/nfs/workspaces/public/cfour_mpi/bin/xbcktrn
 @GETMEM-I,  Allocated    3814 MB of main memory.
 CCSD MO derivative gammas will be transformed to the AO basis.
 @CHECKOUT-I, Total execution time (CPU/WALL):       28.77/      15.00 seconds.
--executable xbcktrn finished with status     0 in       15.03 seconds (walltime).
 --invoking executable--
/nfs/workspaces/public/cfour_mpi/bin/xvdint
 @GETMEM-I,  Allocated    3814 MB of main memory.
 One- and two-electron integral derivatives are calculated
 for RHF-CC/MBPT hessians and dipole derivatives.
 Spherical gaussians are used.
  magnet F F
                    8722  records have been written to the Sort file.
  Total length of Sort file :             178609116  words.
 Evaluation of 2el integral derivatives

                      Two-electron integral gradient
                      ------------------------------

                         C #1 z     0.0000000000
                         O #2 z     0.0000000000


 C #1       0.0000000000           -1.7456780591            0.0000000000
 O #2       0.0000000000            1.7456780591            0.0000000000


 Evaluation of 2e integral derivatives required  349.90 seconds.
  contribution to Hessian
        0.0000000000        0.0000000000        0.0000000000
        0.0000000000       -1.7456780591        1.7456780591
 @CHECKOUT-I, Total execution time (CPU/WALL):      349.89/      73.38 seconds.
--executable xvdint finished with status     0 in       73.49 seconds (walltime).
 --invoking executable--
/nfs/workspaces/public/cfour_mpi/bin/xanti
 @GETMEM-I,  Allocated    3814 MB of main memory.
 CCSD MO gammas will be sorted to Mulliken order.
 @CHECKOUT-I, Total execution time (CPU/WALL):       13.47/      31.26 seconds.
--executable xanti finished with status     0 in       31.34 seconds (walltime).
 --invoking executable--
/nfs/workspaces/public/cfour_mpi/bin/xbcktrn
 @GETMEM-I,  Allocated    3814 MB of main memory.
 CCSD MO gammas will be transformed to the AO basis.
 @CHECKOUT-I, Total execution time (CPU/WALL):       29.02/       9.71 seconds.
--executable xbcktrn finished with status     0 in        9.73 seconds (walltime).
 --invoking executable--
/nfs/workspaces/public/cfour_mpi/bin/xvdint
 @GETMEM-I,  Allocated    3814 MB of main memory.
 One- and two-electron integral derivatives are calculated
 for RHF-CC/MBPT hessians and dipole derivatives.
 Spherical gaussians are used.
  magnet F F

                     Kinetic energy integral gradient
                     --------------------------------

                         C #1 z    -1.9705387923
                         O #2 z     1.9705387923


 C #1       0.0000000000            0.0000000000           -1.9705387923
 O #2       0.0000000000            0.0000000000            1.9705387923



                   Nuclear attraction integral gradient
                   ------------------------------------

                         C #1 z    27.8611358775
                         O #2 z   -27.8611358775


 C #1       0.0000000000            0.0000000000           27.8611358775
 O #2       0.0000000000            0.0000000000          -27.8611358775



                      Reorthonormalization gradient
                      -----------------------------

                         C #1 z     0.0000000000
                         O #2 z     0.0000000000


 C #1       0.0000000000            0.0000000000            0.0000000000
 O #2       0.0000000000            0.0000000000            0.0000000000



                     Kinetic energy integral Hessian
                     -------------------------------


           Symmetry 1

           C #1 z      O #2 z

 C #1 z    0.517373
 O #2 z   -0.517373    0.517373


           Symmetry 2

           C #1 x      O #2 x

 C #1 x   -3.613722
 O #2 x    3.613722   -3.613722


           Symmetry 3

           C #1 y      O #2 y

 C #1 y   -3.613722
 O #2 y    3.613722   -3.613722




           C #1 x      C #1 y      C #1 z      O #2 x      O #2 y      O #2 z

 C #1 x   -3.613722
 C #1 y    0.000000   -3.613722
 C #1 z    0.000000    0.000000    0.517373

 O #2 x    3.613722    0.000000    0.000000   -3.613722
 O #2 y    0.000000    3.613722    0.000000    0.000000   -3.613722
 O #2 z    0.000000    0.000000   -0.517373    0.000000    0.000000    0.517373




                   Nuclear attraction integral Hessian
                   -----------------------------------


           Symmetry 1

           C #1 z      O #2 z

 C #1 z  -12.397098
 O #2 z   12.397098  -12.397098


           Symmetry 2

           C #1 x      O #2 x

 C #1 x   32.205788
 O #2 x  -32.205788   32.205788


           Symmetry 3

           C #1 y      O #2 y

 C #1 y   32.205788
 O #2 y  -32.205788   32.205788




           C #1 x      C #1 y      C #1 z      O #2 x      O #2 y      O #2 z

 C #1 x   32.205788
 C #1 y    0.000000   32.205788
 C #1 z    0.000000    0.000000  -12.397098

 O #2 x  -32.205788    0.000000    0.000000   32.205788
 O #2 y    0.000000  -32.205788    0.000000    0.000000   32.205788
 O #2 z    0.000000    0.000000   12.397098    0.000000    0.000000  -12.397098




                Highest order reorthonormalization Hessian
                ------------------------------------------


           Symmetry 1

           C #1 z      O #2 z

 C #1 z    0.000000
 O #2 z    0.000000    0.000000


           Symmetry 2

           C #1 x      O #2 x

 C #1 x    0.000000
 O #2 x    0.000000    0.000000


           Symmetry 3

           C #1 y      O #2 y

 C #1 y    0.000000
 O #2 y    0.000000    0.000000




           C #1 x      C #1 y      C #1 z      O #2 x      O #2 y      O #2 z




                Electronic contributions to dipole moment
                -----------------------------------------

                               au             Debye

                    z     -0.98289930     -2.49828127

  Conversion factor used: 1 a.u. =   2.54174691 Debye 



   Electronic contributions to static part of dipole moment derivatives
   --------------------------------------------------------------------


                     Total dipole moment derivatives
                     -------------------------------


           Symmetry 1
                              Ez

               C #1 z    -5.82568496
               O #2 z    -8.17431504

           Symmetry 2
                              Ex

               C #1 x    -5.89593743
               O #2 x    -8.10406257

           Symmetry 3
                              Ey

               C #1 y    -5.89593743
               O #2 y    -8.10406257



                       Ex          Ey          Ez

      C #1    x   -5.895937    0.000000    0.000000
      C #1    y    0.000000   -5.895937    0.000000
      C #1    z    0.000000    0.000000   -5.825685

      O #2    x   -8.104063    0.000000    0.000000
      O #2    y    0.000000   -8.104063    0.000000
      O #2    z    0.000000    0.000000   -8.174315

 Evaluation of 1e integral derivatives required    1.76 seconds.
                    8815  records have been written to the Sort file.
  Total length of Sort file :             180513570  words.
 Evaluation of 2el integral derivatives

                      Two-electron integral gradient
                      ------------------------------

                         C #1 z   -11.8322405231
                         O #2 z    11.8322405231


 C #1       0.0000000000            0.0000000000          -11.8322405231
 O #2       0.0000000000            0.0000000000           11.8322405231


 Evaluation of 2e integral derivatives required  733.28 seconds.

                            Molecular gradient
                            ------------------

                         C #1 z    -0.4637931777
                         O #2 z     0.4637931777


 C #1       0.0000000000            0.0000000000           -0.4637931777
 O #2       0.0000000000            0.0000000000            0.4637931777


  Molecular gradient norm 0.656E+00

                            Molecular hessian
                            -----------------


           Symmetry 1

           C #1 z      O #2 z

 C #1 z  102.326311
 O #2 z -102.326311  102.326311


           Symmetry 2

           C #1 x      O #2 x

 C #1 x   14.919588
 O #2 x  -14.919588   14.919588


           Symmetry 3

           C #1 y      O #2 y

 C #1 y   14.919588
 O #2 y  -14.919588   14.919588




           C #1 x      C #1 y      C #1 z      O #2 x      O #2 y      O #2 z

 C #1 x   14.919588
 C #1 y    0.000000   14.919588
 C #1 z    0.000000    0.000000  102.326311

 O #2 x  -14.919588    0.000000    0.000000   14.919588
 O #2 y    0.000000  -14.919588    0.000000    0.000000   14.919588
 O #2 z    0.000000    0.000000 -102.326311    0.000000    0.000000  102.326311




                           Total dipole moment
                           -------------------

                               au             Debye

                    z     -0.25596539     -0.65059923

  Conversion factor used: 1 a.u. =   2.54174691 Debye 



                     Total dipole moment derivatives
                     -------------------------------


           Symmetry 1
                              Ez

               C #1 z     0.65433632
               O #2 z    -0.65433632

           Symmetry 2
                              Ex

               C #1 x    -0.14417411
               O #2 x     0.14417411

           Symmetry 3
                              Ey

               C #1 y    -0.14417411
               O #2 y     0.14417411



                       Ex          Ey          Ez

      C #1    x   -0.144174    0.000000    0.000000
      C #1    y    0.000000   -0.144174    0.000000
      C #1    z    0.000000    0.000000    0.654336

      O #2    x    0.144174    0.000000    0.000000
      O #2    y    0.000000    0.144174    0.000000
      O #2    z    0.000000    0.000000   -0.654336

 @CHECKOUT-I, Total execution time (CPU/WALL):      735.03/     124.92 seconds.
--executable xvdint finished with status     0 in      125.03 seconds (walltime).
 --invoking executable--
/nfs/workspaces/public/cfour_mpi/bin/xjoda
  @GTFLGS-I, Hessian will be transformed to curvilinear coordinates.
  @GTFLGS-I, Hessian will be transformed to curvilinear coordinates.
  igrd and ihes are                      0                     1
  gradient from JOBARC 
   0.000000000000000   0.000000000000000  -0.463793177738147
   0.000000000000000   0.000000000000000   0.463793177738147
 
  @PROJFCM-I, Projecting force constant matrix onto totally symmetric subspace.
  Largest difference between matrix elements of symmetrized
  and unsymmetrized FCM :     0.4255440444E-10.
  read isotopes from ZMAT file 
 
  Summary of diagonal Born-Oppenheimer correction at the correlated level
  The total diagonal Born-Oppenheimer correction (DBOC) is:      0.0038884940 a.u.
  The total diagonal Born-Oppenheimer correction (DBOC) is:        853.425798 cm-1
  The total diagonal Born-Oppenheimer correction (DBOC) is:            10.209 kJ/mole
  hellooooooo 
  readis is  F
 
 @CHECKOUT-I, Total execution time (CPU/WALL):        0.03/       0.07 seconds.
--executable xjoda finished with status     0 in        0.11 seconds (walltime).
  The final electronic energy is      -113.193754147561336 a.u. 
  This computation required                         4274.52 seconds (walltime).
