 --invoking executable--
/nfs/workspaces/public/cfour_mpi/bin/xjoda


   *************************************************************************
         <<<     CCCCCC     CCCCCC   |||     CCCCCC     CCCCCC   >>>
       <<<      CCC        CCC       |||    CCC        CCC         >>>
      <<<      CCC        CCC        |||   CCC        CCC            >>>
    <<<        CCC        CCC        |||   CCC        CCC              >>>
      <<<      CCC        CCC        |||   CCC        CCC            >>>
       <<<      CCC        CCC       |||    CCC        CCC         >>>
         <<<     CCCCCC     CCCCCC   |||     CCCCCC     CCCCCC   >>>
   *************************************************************************

     ****************************************************************
     * CFOUR Coupled-Cluster techniques for Computational Chemistry *
     ****************************************************************
 

   Department of Chemistry                Institut fuer Physikalische Chemie
   University of Florida                  Universitaet Mainz
   Gainesville, FL 32611, USA             D-55099 Mainz, Germany

   Department of Chemistry                Fakultaet fuer Chemie und Biowiss.
   Johns Hopkins University               Karlsruher Institut fuer Technologie
   Baltimore, MD 21218, USA               D-76131 Karlsruhe, Germany

   Department of Chemistry                Department of Physical Chemistry
   Southern Methodist University          Eotvos Lorand University
   Dallas, TX 75275, USA                  H-1053 Budapest, Hungary

 
                       Version 2.1
 
                     vincent.theory.phys.ucl.ac.uk                     
                     Mon  3 Mar 13:08:32 GMT 2025                      
                     integer*8 version is running
 
********************************************************************************
*                          Input from ZMAT file                                *
********************************************************************************
Carbon Monoxide DBOC calculation                                                
C                                                                               
O 1 r                                                                           
                                                                                
r=1.6448275862068966                                                            
                                                                                
                                                                                
*CFOUR(CALC=CCSD,BASIS=AUG-PCVQZ,SCF_CONV=10                                    
CC_CONV=14,DBOC=ON,MEMORY=500000000                                             
ZFIELD=200)                                                                     
                                                                                
%isotopes                                                                       
12                                                                              
18                                                                              
********************************************************************************
  @GTFLGS-I, Hessian will be transformed to curvilinear coordinates.
    -------------------------------------------------------------------
                    CFOUR Control Parameters 
    -------------------------------------------------------------------
        External           Internal           Value            Units
          Name               Name
    -------------------------------------------------------------------
       ABCDTYPE             IABCDT         STANDARD    [  0]    ***   
       ANHARMONIC           IANHAR         OFF         [  0]    ***   
       ANH_ALGORIT          IANALG         STANDARD    [  0]    ***   
       ANH_DERIVAT          IANDER         SECOND      [  1]    ***   
       ANH_MODE             ANHMOD         VIBRATION   [  0]    ***   
       ANH_STEPSIZ          ICUBST             50000          x 10-6  
       ANH_SYMMETR          IANHSM         ABELIAN     [  0]    ***   
       AO_LADDERS           IAOLAD         SINGLEPASS  [  1]    ***   
       AV_SCF               IAVSCF         OFF         [  0]    ***   
       BASIS                IBASIS         AUG-PCVQZ   [ 52]    ***   
       BOTHVECTORS          BOTHVC         OFF         [  0]    ***   
       BOX_POTENT           IPIAB          OFF         [  0]    ***   
       BREIT                IBREIT         OFF         [  0]    ***   
       BRUCK_CONV           IBRTOL          10D-  4             ***   
       BRUECKNER            IBRKNR         OFF         [  0]    ***   
       BUFFERSIZE           IBUFFS              4096            ***   
       CACHE_RECS           ICHREC             10               ***   
       CALCLEVEL            ICLLVL         CCSD        [ 10]    ***   
       CCORBOPT             ICCORB         OFF         [  0]  x 0.01  
       CC_CONV              ICCCNV          10D- 14             ***   
       CC_EXPORDER          ICCEOR              5               ***   
       CC_EXTRAPOL          ICCEXT         DIIS        [  1]    ***   
       CC_GUESS             ICCGES         MP2         [  0]    ***   
       CC_MAXCYC            ICCCYC            100              cycles 
       CC_PROGRAM           ICCPRO         VCC         [  0]    ***   
       CHARGE               ICHRGE              0               ***   
       CHOLESKY             ICHOLE         OFF         [  0]    ***   
       CIS_CONV             ICISTL              5               ***   
       COMM_SIZE            IPSIZE            ***               ***   
       CONSTANT             ICONST         OLD         [  1]    ***   
       CONTINUUM            ICONTU         NONE        [  0]    ***   
       CONTRACTION          ICNTYP         GENERAL     [  1]    ***   
       COORDINATES          ICOORD         INTERNAL    [  0]    ***   
       CPHF_CONVER          ICPHFT          10D- 16             ***   
       CPHF_MAXCYC          ICPHFC             64              cycles 
       CUBIC                ICUBIC         OFF         [  0]    ***   
       CURVILINEAR          ICURVY         ON          [  1]    ***   
       DBOC                 IDBOC          ON          [  1]    ***   
       DCT                  IDCT           OFF         [  0]    ***   
       DERIV_LEV            IDRLVL         SECOND      [  2]    ***   
       DEVMEM_SIZE          IDVMEM          50000000           MByte  
       DIAG_MRCC            IEOMST          10D-  0             ***   
       DIFF_TYPE            IDIFTY         RELAXED     [  0]    ***   
       DIRECT               IDIRCT         OFF         [  0]    ***   
       DROPMO               IDRPMO      NONE         
       ECP                  IECP           OFF         [  0]    ***   
       EIGENVECTOR          IVEC                1               ***   
       EL_ANHARM            IELANH         OFF         [  0]    ***   
       EOMFOLLOW            IEOMSR         ENERGY      [  0]    ***   
       EOMIP                IEOMIP         OFF         [  0]    ***   
       EOMLEVEL             HBARFM         SAME        [  0]    ***   
       EOM_MRCC             IMRCCE         NEW         [  1]    ***   
       EOM_NONIT            EOMNON         OFF         [  0]    ***   
       EOM_NSING            IEOMSI          10D-  0             ***   
       EOM_NSTATES          IMRCCD         DAVIDSON    [  0]    ***   
       EOM_NTRIP            IEOMTR          10D-  0             ***   
       EOM_ORDER            IEXORD         ENERGY      [  0]    ***   
       EOM_PROPSTA          IEOMST              0               ***   
       ESTATE_CONV          IEXTOL          10D-  5             ***   
       ESTATE_DIAG          IEXDIG         ITERATIVE   [  0]    ***   
       ESTATE_LOCK          IESLOC         ON          [  1]    ***   
       ESTATE_MAXC          IEXMXC             40               ***   
       ESTATE_PROP          IEXPRP         OFF         [  0]    ***   
       EVAL_HESS            IRECAL              0            # of cyc.
       EXCITATION           IEXCIT              0               ***   
       EXCITE               IEXCIT         NONE        [  0]    ***   
       EXTERN_POT           IEXPOT         OFF         [  0]    ***   
       FCGRADNEW            IFCGNW         OFF         [  0]    ***   
       FC_FIELD             IFINFC              0             x 10-6  
       FD_CALTYPE           IFDCAL         GRADONLY    [  0]    ***   
       FD_PROJECT           IFDPRJ         OFF         [  1]    ***   
       FD_STEPSIZE          IDISFD              0            10-4 bohr
       FD_USEGROUP          IFDGRP         FULL        [  0]    ***   
       FILE_RECSIZ          IFLREC              4096           words  
       FINITE_PERT          IFIPER              0             x 10-6  
       FIXGEOM              IFIXGM         OFF         [  0]    ***   
       FOCK                 IFOCK          AO          [  1]    ***   
       FREQ_ALGORI          IVIALG         STANDARD    [  0]    ***   
       FROZEN_CORE          IFROCO         OFF         [  0]    ***   
       GAMMA_ABCD           IGABCD         STORE       [  0]    ***   
       GAMMA_ABCI           IGABCI         STORE       [  0]    ***   
       GENBAS_1             IGNBS1              0               ***   
       GENBAS_2             IGNBS2              0               ***   
       GENBAS_3             IGNBS3              0               ***   
       GENBAS_4             IGNBS4              0               ***   
       GEO_CONV             ICONTL              5              H/bohr 
       GEO_MAXCYC           IOPTCY             50               ***   
       GEO_MAXSTEP          IMXSTP            300            millibohr
       GEO_METHOD           INR            SINGLE_POINT[  5]    ***   
       GIAO                 IGIAO          OFF         [  1]    ***   
       GIMIC                IGIMIC         OFF         [  0]    ***   
       GRID                 IGRID          OFF         [  0]    ***   
       GRID_ALGO            IGALGO         SERIAL      [  0]    ***   
       GUESS                IGUESS         MOREAD      [  0]    ***   
       HBAR                 IHBAR          OFF         [  0]    ***   
       HESS_TYPE            IHESTP         SCF         [  0]    ***   
       HF2_FILE             IHF2Fl         USE         [  1]    ***   
       HFSTABILITY          ISTABL         OFF         [  0]    ***   
       INCORE               INCORE         OFF         [  0]    ***   
       INPUT_MRCC           IMRCC          ON          [  1]    ***   
       INTEGRALS            INTTYP         VMOL        [  1]    ***   
       JODA_PRINT           IJPRNT              0               ***   
       KEYWORD_OUT          IDMPKW         NO          [  0]    ***   
       LINDEP_TOL           ILINDP              8               ***   
       LINEQ_CONV           IZTACN          10D-  7           cycles  
       LINEQ_EXPOR          ILMAXD              5               ***   
       LINEQ_MAXCY          ILMAXC            100               ***   
       LINEQ_TYPE           ILTYPE         DIIS        [  1]    ***   
       LOCK_ORBOCC          ILOCOC         OFF         [  0]    ***   
       MEMORY_SIZE          IMEMSZ         500000000           words  
       MEM_UNIT             IMEMU          INTEGERWORDS[  0]    ***   
       MRCC                 IMRCCC         OFF         [  0]    ***   
       MULTIPLICTY          IMULTP              1               ***   
       NACOUPLING           IVCOUP         OFF         [  0]    ***   
       NEGEVAL              IDIE           ABORT       [  0]    ***   
       NEWNORM              INEWNO         OFF         [  0]    ***   
       NON-HF               INONHF         OFF         [  0]    ***   
       NTOP_TAMP            ITOPT2             15               ***   
       NUC_MODEL            INUCMO         POINT       [  0]    ***   
       OCCUPATION           IOCCU   ESTIMATED BY SCF 
       OPEN-SHELL           IOPEN          SPIN-ORBITAL[  0]    ***   
       OPTVIB               IOPTVB         OFF         [  0]    ***   
       ORBITALS             IORBTP         STANDARD    [  0]    ***   
       PARALLEL             IPARAL         ON          [  1]    ***   
       PARA_INT             IPINTS         ON          [  1]    ***   
       PARA_PRINT           IPPRIN              0               ***   
       PERT_ORB             IPTORB         STANDARD    [  0]    ***   
       POINTS               IGRDFD              0               ***   
       PRINT                IPRNT               0               ***   
       PROPS                IPROPS         OFF         [  0]    ***   
       PROP_INTEGR          IINTYP         INTERNAL    [  0]    ***   
       PSI                  IPSI           OFF         [  0]    ***   
       QC_ALG               IQCALG         FLM         [  0]    ***   
       QC_LINALG            IQCLIN         TRIDIAG     [  2]    ***   
       QC_MAXCYC            IQCMAX          10D-100           cycles  
       QC_MAXSCFCY          IQCMSC          10D- 15           cycles  
       QC_RTRUST            IQCRTR          10D-  0           x 10-3  
       QC_SKIPSCF           IQCSKI         OFF         [  0]    ***   
       QC_START             IQCSTA          10D-  1             ***   
       QRHFGUESS            IQGUES         OFF         [  0]    ***   
       QUARTIC              IQUART         OFF         [  0]    ***   
       RAMAN_INT            IRAMIN         OFF         [  0]    ***   
       RAMAN_ORB            IRAMRE         UNRELAXED   [  0]    ***   
       RDO                  IRDOFM         ON          [  1]    ***   
       REDUCE_REPR          REDREP         Ir          [  0]    ***   
       REFERENCE            IREFNC         RHF         [  0]    ***   
       RELATIVIST           IRELAT         OFF         [  0]    ***   
       RELAX_DENS           IRDENS         ON          [  1]    ***   
       RESET_FLAGS          IRESET         OFF         [  0]    ***   
       RESTART_CC           ICCRES         OFF         [  0]    ***   
       ROT_EVEC             ROTVEC              0               ***   
       SAVE_INTS            ISVINT         OFF         [  0]    ***   
       SCALE_ON             ISTCRT              0               ***   
       SCF_CONV             ISCFCV          10D- 10             ***   
       SCF_DAMPING          IDAMP               0             x 10-3  
       SCF_EXPORDE          IRPPOR              6               ***   
       SCF_EXPSTAR          IRPPLS              8               ***   
       SCF_EXTRAPO          IRPP           ON          [  1]    ***   
       SCF_MAXCYC           ISCFCY            150              cycles 
       SCF_NOSTOP           ISCFST         OFF         [  0]    ***   
       SCF_PRINT            ISCFPR              0               ***   
       SCF_PROG             ISCFPR         SCF         [  0]    ***   
       SD_FIELD             IFINSD              0             x 10-6  
       SOPERT               IPERSO         OFF         [  0]    ***   
       SPHERICAL            IDFGHI         ON          [  1]    ***   
       SPINORBIT            ISOCAL         OFF         [  0]    ***   
       SPINROTATIO          ISRCON         OFF         [  0]    ***   
       SPIN_FLIP            ISPFLP         OFF         [  0]    ***   
       SPIN_ORBIT           ISPORB         OFF         [  0]    ***   
       SPIN_SCAL            ISCSMP         OFF         [  0]    ***   
       STEEPSCALE           ISTPSC              1000          x 10-3  
       SUBGROUP             ISUBGP         DEFAULT     [  0]    ***   
       SUBGRPAXIS           ISBXYZ         X           [  0]    ***   
       SYMMETRY             ISYM           ON          [  0]    ***   
       SYM_CHECK            ISYMCK         OVERRIDE    [  1]    ***   
       T3_EXTRAPOL          IT3EXT         OFF         [  0]    ***   
       T4_EXTRAPOL          IT4EXP         OFF         [  0]    ***   
       TAMP_SUM             IEVERY              5               ***   
       TESTSUITE            ITESTS         OFF         [  0]    ***   
       THERMOCH             ITHERM         OFF         [  0]    ***   
       TOL_CHOLESK          ITOLCH          10D-  4             ***   
       TRANGRAD             IRESRM         OFF         [  0]    ***   
       TRANS_INV            ITRAIN         IGNORE      [  1]    ***   
       TREAT_PERT           ITREAT         SIMULTANEOUS[  0]    ***   
       TRIP_ALGORI          ITRALG         NORMAL      [  0]    ***   
       UIJ_THRESHO          IUIJTH              1               ***   
       UNITS                IUNITS         ANGSTROM    [  0]    ***   
       UNOS                 IUNOS          OFF         [  0]    ***   
       UPDATE_HESS          IHUPDT         ON          [  1]    ***   
       VIBPHASE             ISETPH         STANDARD    [  0]    ***   
       VIBRATION            IVIB           ANALYTIC    [  1]    ***   
       VIB_ALGORIT          IGEALG         STANDARD    [  0]    ***   
       VNATORB              IVNORB         OFF         [  0]    ***   
       VTRAN                IVTRAN         FULL/PARTIAL[  0]    ***   
       XFIELD               IXEFLD              0             x 10-6  
       XFORM_TOL            IXFTOL          10D- 11             ***   
       YFIELD               IYEFLD              0             x 10-6  
       ZFIELD               IZEFLD            200             x 10-6  
       ZSCALE_EXP           IZEXPS         OFF         [  0]    ***   
    -------------------------------------------------------------------
   2 entries found in Z-matrix 
   Job Title : Carbon Monoxide DBOC calculation                                                
   There are  1 unique internal coordinates.
   Of these,  0 will be optimized.
   User supplied Z-matrix: 
--------------------------------------------------------------------------------
       SYMBOL    BOND      LENGTH    ANGLE     ANGLE     DIHED     ANGLE
                  TO      (ANGST)    WRT      (DEG)      WRT      (DEG)
--------------------------------------------------------------------------------
        C    
        O          1         r    
                  *Initial values for internal coordinates* 
                      Name             Value
                        r               1.6448275862
--------------------------------------------------------------------------------
  read isotopes from ZMAT file 
   Rotational constants (in cm-1): 
          0.8654289136             0.8654289136
   Rotational constants (in MHz): 
      25944.9097577210         25944.9097577210
********************************************************************************
   The full molecular point group is CXv .
   The largest Abelian subgroup of the full molecular point group is C2v .
   The computational point group is C2v .
********************************************************************************
--------------------------------------------------------------------------------
   Analysis of internal coordinates specified by Z-matrix 
--------------------------------------------------------------------------------
   *The nuclear repulsion energy is   15.442652477987419 a.u.
   *There is   1 degree of freedom within the tot. symm. molecular subspace.
   *Z-matrix requests optimization of   0 coordinates.
   *The optimization is constrained.
   *The following   1 parameters can have non-zero 
    derivatives within the totally symmetric subspace:
             r    [ 1]
   *The following   0 parameters are to be optimized:

   *The following coordinates must be varied in an  unconstrained optimization.
             r    [ 1]
--------------------------------------------------------------------------------


 ----------------------------------------------------------------
         Coordinates used in calculation (QCOMP) 
 ----------------------------------------------------------------
 Z-matrix   Atomic            Coordinates (in bohr)
  Symbol    Number           X              Y              Z
 ----------------------------------------------------------------
     C         6        -0.00000000     0.00000000     1.86492979
     O         8         0.00000000     0.00000000    -1.24334453
 ----------------------------------------------------------------
 
   Interatomic distance matrix (Angstroms) 
 
                 C             O    
                [ 1]        [ 2]
  C    [ 1]     0.00000
  O    [ 2]     1.64483     0.00000
 rotcon2
   Rotational constants (in cm-1): 
          0.8654289136             0.0000000000
   Rotational constants (in MHz): 
      25944.9097577210             0.0000000000
  ECPDATA file not present.   Using default ECPDATA. 
  @GTFLGS-I, Hessian will be transformed to curvilinear coordinates.
  There are  218 basis functions.
 @CHECKOUT-I, Total execution time (CPU/WALL):        0.22/       0.28 seconds.
--executable xjoda finished with status     0 in        0.33 seconds (walltime).
 --invoking executable--
/nfs/workspaces/public/cfour_mpi/bin/xvmol
 SERIAL VERSION OF MOLECULE STARTED
********************************************************************************
                    INPUT FROM MOL FILE
********************************************************************************
INTGRL        1    0    1    0    0    0    0    0    0                         
         *** CFOUR Program System (Release V0.1) ***                            
Carbon Monoxide DBOC calculation                                                
    2    2 X  Y       0.10E-08              0    0                              
   9999.00      3.00                                                            
          6.00000000    1    5    1    1    1    1    1                         
C #1  -0.000000000000000   0.000000000000000   1.864929785735284                
   16    9                                                                      
   33980.0000000000       9.100000000000000E-005 -1.900000000000000E-005        
  0.000000000000000E+000  0.000000000000000E+000  0.000000000000000E+000        
  0.000000000000000E+000  0.000000000000000E+000  0.000000000000000E+000        
  0.000000000000000E+000                                                        
   5089.00000000000       7.040000000000000E-004 -1.510000000000000E-004        
  0.000000000000000E+000  0.000000000000000E+000  0.000000000000000E+000        
  0.000000000000000E+000  0.000000000000000E+000  0.000000000000000E+000        
  0.000000000000000E+000                                                        
   1157.00000000000       3.693000000000000E-003 -7.850000000000000E-004        
  0.000000000000000E+000  0.000000000000000E+000  0.000000000000000E+000        
  0.000000000000000E+000  0.000000000000000E+000  0.000000000000000E+000        
  0.000000000000000E+000                                                        
   326.600000000000       1.536000000000000E-002 -3.324000000000000E-003        
  0.000000000000000E+000  0.000000000000000E+000  0.000000000000000E+000        
  0.000000000000000E+000  0.000000000000000E+000  0.000000000000000E+000        
  0.000000000000000E+000                                                        
   106.100000000000       5.292900000000000E-002 -1.151200000000000E-002        
  0.000000000000000E+000  0.000000000000000E+000  0.000000000000000E+000        
  0.000000000000000E+000  0.000000000000000E+000  0.000000000000000E+000        
  0.000000000000000E+000                                                        
   38.1100000000000       0.147043000000000      -3.416000000000000E-002        
  0.000000000000000E+000  0.000000000000000E+000  0.000000000000000E+000        
  0.000000000000000E+000  0.000000000000000E+000  0.000000000000000E+000        
  0.000000000000000E+000                                                        
   14.7500000000000       0.305631000000000      -7.717300000000001E-002        
  0.000000000000000E+000  0.000000000000000E+000  0.000000000000000E+000        
  0.000000000000000E+000  0.000000000000000E+000  0.000000000000000E+000        
  0.000000000000000E+000                                                        
   6.03500000000000       0.399345000000000      -0.141493000000000             
  0.000000000000000E+000  0.000000000000000E+000  0.000000000000000E+000        
  0.000000000000000E+000  0.000000000000000E+000  0.000000000000000E+000        
  0.000000000000000E+000                                                        
   2.53000000000000       0.217051000000000      -0.118019000000000             
  0.000000000000000E+000  0.000000000000000E+000  0.000000000000000E+000        
  0.000000000000000E+000  0.000000000000000E+000  0.000000000000000E+000        
  0.000000000000000E+000                                                        
  0.735500000000000       1.589400000000000E-002  0.273806000000000             
   1.00000000000000       0.000000000000000E+000  0.000000000000000E+000        
  0.000000000000000E+000  0.000000000000000E+000  0.000000000000000E+000        
  0.000000000000000E+000                                                        
  0.290500000000000      -3.084000000000000E-003  0.586510000000000             
  0.000000000000000E+000   1.00000000000000       0.000000000000000E+000        
  0.000000000000000E+000  0.000000000000000E+000  0.000000000000000E+000        
  0.000000000000000E+000                                                        
  0.111100000000000       9.779999999999999E-004  0.285430000000000             
  0.000000000000000E+000  0.000000000000000E+000   1.00000000000000             
  0.000000000000000E+000  0.000000000000000E+000  0.000000000000000E+000        
  0.000000000000000E+000                                                        
   7.21600000000000       0.000000000000000E+000  0.000000000000000E+000        
  0.000000000000000E+000  0.000000000000000E+000  0.000000000000000E+000        
   1.00000000000000       0.000000000000000E+000  0.000000000000000E+000        
  0.000000000000000E+000                                                        
   19.5700000000000       0.000000000000000E+000  0.000000000000000E+000        
  0.000000000000000E+000  0.000000000000000E+000  0.000000000000000E+000        
  0.000000000000000E+000   1.00000000000000       0.000000000000000E+000        
  0.000000000000000E+000                                                        
   53.0730000000000       0.000000000000000E+000  0.000000000000000E+000        
  0.000000000000000E+000  0.000000000000000E+000  0.000000000000000E+000        
  0.000000000000000E+000  0.000000000000000E+000   1.00000000000000             
  0.000000000000000E+000                                                        
  4.145000000000000E-002  0.000000000000000E+000  0.000000000000000E+000        
  0.000000000000000E+000  0.000000000000000E+000  0.000000000000000E+000        
  0.000000000000000E+000  0.000000000000000E+000  0.000000000000000E+000        
   1.00000000000000                                                             
   10    8                                                                      
   34.5100000000000       5.378000000000000E-003  0.000000000000000E+000        
  0.000000000000000E+000  0.000000000000000E+000  0.000000000000000E+000        
  0.000000000000000E+000  0.000000000000000E+000  0.000000000000000E+000        
   7.91500000000000       3.613200000000000E-002  0.000000000000000E+000        
  0.000000000000000E+000  0.000000000000000E+000  0.000000000000000E+000        
  0.000000000000000E+000  0.000000000000000E+000  0.000000000000000E+000        
   2.36800000000000       0.142493000000000       0.000000000000000E+000        
  0.000000000000000E+000  0.000000000000000E+000  0.000000000000000E+000        
  0.000000000000000E+000  0.000000000000000E+000  0.000000000000000E+000        
  0.813200000000000       0.342150000000000        1.00000000000000             
  0.000000000000000E+000  0.000000000000000E+000  0.000000000000000E+000        
  0.000000000000000E+000  0.000000000000000E+000  0.000000000000000E+000        
  0.289000000000000       0.463864000000000       0.000000000000000E+000        
   1.00000000000000       0.000000000000000E+000  0.000000000000000E+000        
  0.000000000000000E+000  0.000000000000000E+000  0.000000000000000E+000        
  0.100700000000000       0.250028000000000       0.000000000000000E+000        
  0.000000000000000E+000   1.00000000000000       0.000000000000000E+000        
  0.000000000000000E+000  0.000000000000000E+000  0.000000000000000E+000        
   8.18200000000000       0.000000000000000E+000  0.000000000000000E+000        
  0.000000000000000E+000  0.000000000000000E+000   1.00000000000000             
  0.000000000000000E+000  0.000000000000000E+000  0.000000000000000E+000        
   24.1860000000000       0.000000000000000E+000  0.000000000000000E+000        
  0.000000000000000E+000  0.000000000000000E+000  0.000000000000000E+000        
   1.00000000000000       0.000000000000000E+000  0.000000000000000E+000        
   71.4940000000000       0.000000000000000E+000  0.000000000000000E+000        
  0.000000000000000E+000  0.000000000000000E+000  0.000000000000000E+000        
  0.000000000000000E+000   1.00000000000000       0.000000000000000E+000        
  3.218000000000000E-002  0.000000000000000E+000  0.000000000000000E+000        
  0.000000000000000E+000  0.000000000000000E+000  0.000000000000000E+000        
  0.000000000000000E+000  0.000000000000000E+000   1.00000000000000             
    6    6                                                                      
   1.84800000000000        1.00000000000000       0.000000000000000E+000        
  0.000000000000000E+000  0.000000000000000E+000  0.000000000000000E+000        
  0.000000000000000E+000                                                        
  0.649000000000000       0.000000000000000E+000   1.00000000000000             
  0.000000000000000E+000  0.000000000000000E+000  0.000000000000000E+000        
  0.000000000000000E+000                                                        
  0.228000000000000       0.000000000000000E+000  0.000000000000000E+000        
   1.00000000000000       0.000000000000000E+000  0.000000000000000E+000        
  0.000000000000000E+000                                                        
   8.65600000000000       0.000000000000000E+000  0.000000000000000E+000        
  0.000000000000000E+000   1.00000000000000       0.000000000000000E+000        
  0.000000000000000E+000                                                        
   33.2130000000000       0.000000000000000E+000  0.000000000000000E+000        
  0.000000000000000E+000  0.000000000000000E+000   1.00000000000000             
  0.000000000000000E+000                                                        
  7.660000000000000E-002  0.000000000000000E+000  0.000000000000000E+000        
  0.000000000000000E+000  0.000000000000000E+000  0.000000000000000E+000        
   1.00000000000000                                                             
    4    4                                                                      
   1.41900000000000        1.00000000000000       0.000000000000000E+000        
  0.000000000000000E+000  0.000000000000000E+000                                
  0.485000000000000       0.000000000000000E+000   1.00000000000000             
  0.000000000000000E+000  0.000000000000000E+000                                
   24.6940000000000       0.000000000000000E+000  0.000000000000000E+000        
   1.00000000000000       0.000000000000000E+000                                
  0.187000000000000       0.000000000000000E+000  0.000000000000000E+000        
  0.000000000000000E+000   1.00000000000000                                     
    2    2                                                                      
   1.01100000000000        1.00000000000000       0.000000000000000E+000        
  0.424000000000000       0.000000000000000E+000   1.00000000000000             
          8.00000000    1    5    1    1    1    1    1                         
O #2   0.000000000000000   0.000000000000000  -1.243344525845653                
   16    9                                                                      
   61420.0000000000       9.000000000000001E-005 -2.000000000000000E-005        
  0.000000000000000E+000  0.000000000000000E+000  0.000000000000000E+000        
  0.000000000000000E+000  0.000000000000000E+000  0.000000000000000E+000        
  0.000000000000000E+000                                                        
   9199.00000000000       6.980000000000001E-004 -1.590000000000000E-004        
  0.000000000000000E+000  0.000000000000000E+000  0.000000000000000E+000        
  0.000000000000000E+000  0.000000000000000E+000  0.000000000000000E+000        
  0.000000000000000E+000                                                        
   2091.00000000000       3.664000000000000E-003 -8.290000000000000E-004        
  0.000000000000000E+000  0.000000000000000E+000  0.000000000000000E+000        
  0.000000000000000E+000  0.000000000000000E+000  0.000000000000000E+000        
  0.000000000000000E+000                                                        
   590.900000000000       1.521800000000000E-002 -3.508000000000000E-003        
  0.000000000000000E+000  0.000000000000000E+000  0.000000000000000E+000        
  0.000000000000000E+000  0.000000000000000E+000  0.000000000000000E+000        
  0.000000000000000E+000                                                        
   192.300000000000       5.242300000000000E-002 -1.215600000000000E-002        
  0.000000000000000E+000  0.000000000000000E+000  0.000000000000000E+000        
  0.000000000000000E+000  0.000000000000000E+000  0.000000000000000E+000        
  0.000000000000000E+000                                                        
   69.3200000000000       0.145921000000000      -3.626100000000000E-002        
  0.000000000000000E+000  0.000000000000000E+000  0.000000000000000E+000        
  0.000000000000000E+000  0.000000000000000E+000  0.000000000000000E+000        
  0.000000000000000E+000                                                        
   26.9700000000000       0.305258000000000      -8.299200000000000E-002        
  0.000000000000000E+000  0.000000000000000E+000  0.000000000000000E+000        
  0.000000000000000E+000  0.000000000000000E+000  0.000000000000000E+000        
  0.000000000000000E+000                                                        
   11.1000000000000       0.398508000000000      -0.152090000000000             
  0.000000000000000E+000  0.000000000000000E+000  0.000000000000000E+000        
  0.000000000000000E+000  0.000000000000000E+000  0.000000000000000E+000        
  0.000000000000000E+000                                                        
   4.68200000000000       0.216980000000000      -0.115331000000000             
  0.000000000000000E+000  0.000000000000000E+000  0.000000000000000E+000        
  0.000000000000000E+000  0.000000000000000E+000  0.000000000000000E+000        
  0.000000000000000E+000                                                        
   1.42800000000000       1.759400000000000E-002  0.288979000000000             
   1.00000000000000       0.000000000000000E+000  0.000000000000000E+000        
  0.000000000000000E+000  0.000000000000000E+000  0.000000000000000E+000        
  0.000000000000000E+000                                                        
  0.554700000000000      -2.502000000000000E-003  0.586128000000000             
  0.000000000000000E+000   1.00000000000000       0.000000000000000E+000        
  0.000000000000000E+000  0.000000000000000E+000  0.000000000000000E+000        
  0.000000000000000E+000                                                        
  0.206700000000000       9.540000000000000E-004  0.277624000000000             
  0.000000000000000E+000  0.000000000000000E+000   1.00000000000000             
  0.000000000000000E+000  0.000000000000000E+000  0.000000000000000E+000        
  0.000000000000000E+000                                                        
   12.9740000000000       0.000000000000000E+000  0.000000000000000E+000        
  0.000000000000000E+000  0.000000000000000E+000  0.000000000000000E+000        
   1.00000000000000       0.000000000000000E+000  0.000000000000000E+000        
  0.000000000000000E+000                                                        
   34.9000000000000       0.000000000000000E+000  0.000000000000000E+000        
  0.000000000000000E+000  0.000000000000000E+000  0.000000000000000E+000        
  0.000000000000000E+000   1.00000000000000       0.000000000000000E+000        
  0.000000000000000E+000                                                        
   93.8810000000000       0.000000000000000E+000  0.000000000000000E+000        
  0.000000000000000E+000  0.000000000000000E+000  0.000000000000000E+000        
  0.000000000000000E+000  0.000000000000000E+000   1.00000000000000             
  0.000000000000000E+000                                                        
  6.959000000000000E-002  0.000000000000000E+000  0.000000000000000E+000        
  0.000000000000000E+000  0.000000000000000E+000  0.000000000000000E+000        
  0.000000000000000E+000  0.000000000000000E+000  0.000000000000000E+000        
   1.00000000000000                                                             
   10    8                                                                      
   63.4200000000000       6.044000000000000E-003  0.000000000000000E+000        
  0.000000000000000E+000  0.000000000000000E+000  0.000000000000000E+000        
  0.000000000000000E+000  0.000000000000000E+000  0.000000000000000E+000        
   14.6600000000000       4.179900000000000E-002  0.000000000000000E+000        
  0.000000000000000E+000  0.000000000000000E+000  0.000000000000000E+000        
  0.000000000000000E+000  0.000000000000000E+000  0.000000000000000E+000        
   4.45900000000000       0.161143000000000       0.000000000000000E+000        
  0.000000000000000E+000  0.000000000000000E+000  0.000000000000000E+000        
  0.000000000000000E+000  0.000000000000000E+000  0.000000000000000E+000        
   1.53100000000000       0.356731000000000        1.00000000000000             
  0.000000000000000E+000  0.000000000000000E+000  0.000000000000000E+000        
  0.000000000000000E+000  0.000000000000000E+000  0.000000000000000E+000        
  0.530200000000000       0.448309000000000       0.000000000000000E+000        
   1.00000000000000       0.000000000000000E+000  0.000000000000000E+000        
  0.000000000000000E+000  0.000000000000000E+000  0.000000000000000E+000        
  0.175000000000000       0.244940000000000       0.000000000000000E+000        
  0.000000000000000E+000   1.00000000000000       0.000000000000000E+000        
  0.000000000000000E+000  0.000000000000000E+000  0.000000000000000E+000        
   14.4750000000000       0.000000000000000E+000  0.000000000000000E+000        
  0.000000000000000E+000  0.000000000000000E+000   1.00000000000000             
  0.000000000000000E+000  0.000000000000000E+000  0.000000000000000E+000        
   42.7300000000000       0.000000000000000E+000  0.000000000000000E+000        
  0.000000000000000E+000  0.000000000000000E+000  0.000000000000000E+000        
   1.00000000000000       0.000000000000000E+000  0.000000000000000E+000        
   126.140000000000       0.000000000000000E+000  0.000000000000000E+000        
  0.000000000000000E+000  0.000000000000000E+000  0.000000000000000E+000        
  0.000000000000000E+000   1.00000000000000       0.000000000000000E+000        
  5.348000000000000E-002  0.000000000000000E+000  0.000000000000000E+000        
  0.000000000000000E+000  0.000000000000000E+000  0.000000000000000E+000        
  0.000000000000000E+000  0.000000000000000E+000   1.00000000000000             
    6    6                                                                      
   3.77500000000000        1.00000000000000       0.000000000000000E+000        
  0.000000000000000E+000  0.000000000000000E+000  0.000000000000000E+000        
  0.000000000000000E+000                                                        
   1.30000000000000       0.000000000000000E+000   1.00000000000000             
  0.000000000000000E+000  0.000000000000000E+000  0.000000000000000E+000        
  0.000000000000000E+000                                                        
  0.444000000000000       0.000000000000000E+000  0.000000000000000E+000        
   1.00000000000000       0.000000000000000E+000  0.000000000000000E+000        
  0.000000000000000E+000                                                        
   14.9270000000000       0.000000000000000E+000  0.000000000000000E+000        
  0.000000000000000E+000   1.00000000000000       0.000000000000000E+000        
  0.000000000000000E+000                                                        
   57.5440000000000       0.000000000000000E+000  0.000000000000000E+000        
  0.000000000000000E+000  0.000000000000000E+000   1.00000000000000             
  0.000000000000000E+000                                                        
  0.154000000000000       0.000000000000000E+000  0.000000000000000E+000        
  0.000000000000000E+000  0.000000000000000E+000  0.000000000000000E+000        
   1.00000000000000                                                             
    4    4                                                                      
   2.66600000000000        1.00000000000000       0.000000000000000E+000        
  0.000000000000000E+000  0.000000000000000E+000                                
  0.859000000000000       0.000000000000000E+000   1.00000000000000             
  0.000000000000000E+000  0.000000000000000E+000                                
   26.4830000000000       0.000000000000000E+000  0.000000000000000E+000        
   1.00000000000000       0.000000000000000E+000                                
  0.324000000000000       0.000000000000000E+000  0.000000000000000E+000        
  0.000000000000000E+000   1.00000000000000                                     
    2    2                                                                      
   1.84600000000000        1.00000000000000       0.000000000000000E+000        
  0.714000000000000       0.000000000000000E+000   1.00000000000000             
FINISH                                                                          
 
********************************************************************************
 ONE- AND TWO-ELECTRON INTEGRALS OVER SYMMETRY-ADAPTED AOS ARE CALCULATED.

  SPHERICAL HARMONICS ARE USED.
  
  INTEGRALS LESS THAN  0.10E-13 ARE NEGLECTED.

  NUCLEAR REPULSION ENERGY :   15.4426524780 A.U.
  @MOLECU-I, ONE ELECTRON INTEGRALS (CPU/WALL):        0.06/       0.07 SECONDS.
  @TWOEL-I,    4413699 INTEGRALS OF SYMMETRY TYPE  I I I I
  @TWOEL-I,   19047684 INTEGRALS OF SYMMETRY TYPE  I J I J
  @TWOEL-I,   10029408 INTEGRALS OF SYMMETRY TYPE  I I J J
  @TWOEL-I,   14072863 INTEGRALS OF SYMMETRY TYPE  I J K L
  @TWOEL-I, TOTAL NUMBER OF 2-E INTEGRALS   47563654.
  @MOLECU-I, TWO ELECTRON INTEGRALS (CPU/WALL):      198.05/      26.94 SECONDS.
 @CHECKOUT-I, Total execution time (CPU/WALL):      198.14/      27.05 seconds.

Running with 14 threads/proc

--executable xvmol finished with status     0 in       27.11 seconds (walltime).
 --invoking executable--
/nfs/workspaces/public/cfour_mpi/bin/xvmol2ja
 @GETMEM-I,  Allocated    3814 MB of main memory.
 @CHECKOUT-I, Total execution time (CPU/WALL):        0.18/       0.05 seconds.
--executable xvmol2ja finished with status     0 in        0.11 seconds (walltime).
 --invoking executable--
/nfs/workspaces/public/cfour_mpi/bin/xvprop
 @GETMEM-I,  Allocated    3814 MB of main memory.
   Property integrals will be calculated.
    --------------------------------------------------------------
                                   Property evaluated at 
    Property type                X             Y             Z
    --------------------------------------------------------------
    Dipole moment               ----          ----          ----  
    Quadrupole moment           ----          ----          ----  
    Octopole moment             ----          ----          ----  
    Relativisitic corr.         ----          ----          ----  
    Second moment            0.0000000     0.0000000     0.0000000
    Electron density         0.0000000     0.0000000     1.8649298
    Electron density         0.0000000     0.0000000    -1.2433445
    Field gradient           0.0000000     0.0000000     1.8649298
    Field gradient           0.0000000     0.0000000    -1.2433445
    Potential                0.0000000     0.0000000     1.8649298
    Potential                0.0000000     0.0000000    -1.2433445
    --------------------------------------------------------------
 @CHECKOUT-I, Total execution time (CPU/WALL):        1.35/       1.36 seconds.
--executable xvprop finished with status     0 in        1.38 seconds (walltime).
 --invoking executable--
/nfs/workspaces/public/cfour_mpi/bin/xvscf
  There are  218 functions in the AO basis.

  There are 4 irreducible representations.

       Irrep        # of functions
         1                 86
         2                 52
         3                 52
         4                 28


  Parameters for SCF calculation: 
        SCF reference function:  RHF  
  Maximum number of iterations:  150
     Full symmetry point group: CXv 
     Computational point group: C2v 
        Initial density matrix: MOREAD                 
     SCF convergence tolerance: 10**(-10)
  DIIS convergence acceleration:  ON
          Latest start for DIIS:   8
                     DIIS order:   6

  Memory information:    2523578 words required.
  Fock matrices are constructed from AO integral file.
 @GETMEM-I,  Allocated      19 MB of main memory.
  Initialization and symmetry analysis required      0.001 seconds.

  Adding electric field perturbation to one-electron Hamiltonian.
  Field direction     : Z
  Field strength      :  0.0002000 a.u.

  @INITGES-I, Occupancies from core Hamiltonian:

          Alpha population by irrep:   5    1    1    0
           Beta population by irrep:   5    1    1    0


 total no. of electrons in initial guess :  0.000000000000000E+000
  --------------------------------------------------------------------
  Iteration         Total Energy            Largest Density Difference
  --------------------------------------------------------------------
       0            15.442403913486519              0.0000000000D+00
   current occupation vector 
     5  1  1  0
     5  1  1  0
       1           -93.650062520210284              0.1755569473D+02
   current occupation vector 
     5  1  1  0
     5  1  1  0
       2           -97.884920977290349              0.1755568240D+02
   current occupation vector 
     5  1  1  0
     5  1  1  0
       3          -100.170696468266030              0.6820858464D+01
   current occupation vector 
     5  1  1  0
     5  1  1  0
       4           -94.924018186670054              0.6817680395D+01
   current occupation vector 
     5  1  1  0
     5  1  1  0
       5          -100.128252513215699              0.7010651961D+01
   current occupation vector 
     5  1  1  0
     5  1  1  0
       6           -94.771596790931625              0.7010926407D+01
   current occupation vector 
     5  1  1  0
     5  1  1  0
       7          -100.121930978721736              0.7020563740D+01
   current occupation vector 
     5  1  1  0
     5  1  1  0
       8           -94.767178895032487              0.7020578882D+01
   current occupation vector 
     5  1  1  0
     5  1  1  0
       9          -107.358018531582971              0.5945939895D+01
   current occupation vector 
     5  1  1  0
     5  1  1  0
      10          -110.622402700897979              0.1323180737D+01
   current occupation vector 
     5  1  1  0
     5  1  1  0
      11          -112.360405207100669              0.1024226398D+01
   current occupation vector 
     5  1  1  0
     5  1  1  0
      12          -112.478347892283509              0.5099160205D+00
   current occupation vector 
     5  1  1  0
     5  1  1  0
      13          -112.500623261188707              0.1282888191D+00
   current occupation vector 
     5  1  1  0
     5  1  1  0
      14          -112.507270133746317              0.9062121412D-01
   current occupation vector 
     5  1  1  0
     5  1  1  0
      15          -112.507797412360944              0.2812857602D-01
   current occupation vector 
     5  1  1  0
     5  1  1  0
      16          -112.508295877233465              0.4315945666D-01
   current occupation vector 
     5  1  1  0
     5  1  1  0
      17          -112.508505886232143              0.3200362456D-01
   current occupation vector 
     5  1  1  0
     5  1  1  0
      18          -112.508551050888300              0.1944425119D-01
   current occupation vector 
     5  1  1  0
     5  1  1  0
      19          -112.508551460818936              0.1644064027D-02
   current occupation vector 
     5  1  1  0
     5  1  1  0
      20          -112.508551464614825              0.1410498204D-03
   current occupation vector 
     5  1  1  0
     5  1  1  0
      21          -112.508551464792788              0.1713586571D-04
   current occupation vector 
     5  1  1  0
     5  1  1  0
      22          -112.508551464794067              0.3348324526D-05
   current occupation vector 
     5  1  1  0
     5  1  1  0
      23          -112.508551464794479              0.9480477781D-06
   current occupation vector 
     5  1  1  0
     5  1  1  0
      24          -112.508551464795005              0.1029680534D-06
   current occupation vector 
     5  1  1  0
     5  1  1  0
      25          -112.508551464794209              0.3323310294D-07
   current occupation vector 
     5  1  1  0
     5  1  1  0
      26          -112.508551464794920              0.3314805763D-08
   current occupation vector 
     5  1  1  0
     5  1  1  0
      27          -112.508551464794252              0.5960246519D-08
   current occupation vector 
     5  1  1  0
     5  1  1  0
      28          -112.508551464794522              0.6440554978D-08
   current occupation vector 
     5  1  1  0
     5  1  1  0
      29          -112.508551464795147              0.1060507016D-08
   current occupation vector 
     5  1  1  0
     5  1  1  0

  SCF has converged.

 Density matrix saved to file den.dat
 total electron number:   14.0000000000000     
     E(SCF)=      -112.508551464794209              0.6014030593D-10

  Eigenvector printing suppressed.

 @PUTMOS-I, Writing converged MOs to NEWMOS. 
 @PUTMOS-I, Symmetry   1 Full Blocks 21 Partial Blocksize   2
 @PUTMOS-I, Symmetry   2 Full Blocks 13 Partial Blocksize   0
 @PUTMOS-I, Symmetry   3 Full Blocks 13 Partial Blocksize   0
 @PUTMOS-I, Symmetry   4 Full Blocks  7 Partial Blocksize   0
 @PUTFOCK-I, Writing converged Fock matrix to NEWFOCK. 
 @PUTFOCK-I, Symmetry   1 Full Blocks 21 Partial Blocksize   2
 @PUTFOCK-I, Symmetry   2 Full Blocks 13 Partial Blocksize   0
 @PUTFOCK-I, Symmetry   3 Full Blocks 13 Partial Blocksize   0
 @PUTFOCK-I, Symmetry   4 Full Blocks  7 Partial Blocksize   0


 
  ORBITAL EIGENVALUES (ALPHA)  (1H = 27.2113834 eV)

       MO #        E(hartree)               E(eV)           FULLSYM    COMPSYM
       ----   --------------------   --------------------   -------   ---------
    1     1         -20.6400802067        -561.6451359116     SG+        A1 (1)
    2     2         -11.5296934053        -313.7389077371     SG+        A1 (1)
    3     3          -1.2618709682         -34.3372547162     SG+        A1 (1)
    4     4          -0.8083195853         -21.9954941440     SG+        A1 (1)
    5     5          -0.5201883605         -14.1550449172     SG+        A1 (1)
    6    87          -0.4900252170         -13.3342640560      PI        B1 (2)
    7   139          -0.4900252170         -13.3342640560      PI        B2 (3)
  +++++++++++++++++++++++++++++++++++++++++++++++++++++++++++++++++++++++++++++
    8    88          -0.0138551975          -0.3770190915      PI        B1 (2)
    9   140          -0.0138551975          -0.3770190915      PI        B2 (3)
   10     6           0.0597247781           1.6251938363     SG+        A1 (1)
   11     7           0.0686355260           1.8676676136     SG+        A1 (1)
   12    89           0.0816746634           2.2224805807      PI        B1 (2)
   13   141           0.0816746634           2.2224805807      PI        B2 (3)
   14     8           0.1563888808           4.2555577943     SG+        A1 (1)
   15   142           0.1808185391           4.9203225933      PI        B2 (3)
   16    90           0.1808185391           4.9203225933      PI        B1 (2)
   17     9           0.1864379059           5.0732333382     SG+        A1 (1)
   18    10           0.2214009605           6.0246264224      DE        A1 (1)
   19   191           0.2214009605           6.0246264224      DE        A2 (4)
   20    91           0.2834319282           7.7125748660      PI        B1 (2)
   21   143           0.2834319282           7.7125748660      PI        B2 (3)
   22    11           0.2992785049           8.1437821392     SG+        A1 (1)
   23    12           0.3043698504           8.2823246941     SG+        A1 (1)
   24   144           0.4068156630          11.0700169777      PI        B2 (3)
   25    92           0.4068156630          11.0700169777      PI        B1 (2)
   26    13           0.4149871274          11.2923738294     SG+        A1 (1)
   27    14           0.5141628849          13.9910833903     SG+        A1 (1)
   28   192           0.5503322147          14.9753008913      DE        A2 (4)
   29    15           0.5503322147          14.9753008913      DE        A1 (1)
   30    93           0.6229244310          16.9506355213      PI        B1 (2)
   31   145           0.6229244310          16.9506355213      PI        B2 (3)
   32    16           0.7013952119          19.0859340268     SG+        A1 (1)
   33    94           0.7293800288          19.8474396074      PH        B1 (2)
   34   146           0.7293800288          19.8474396074      PH        B2 (3)
   35    17           0.7358082524          20.0223604650      DE        A1 (1)
   36   193           0.7358082524          20.0223604650      DE        A2 (4)
   37    95           0.7730582080          21.0359832894      PI        B1 (2)
   38   147           0.7730582080          21.0359832894      PI        B2 (3)
   39    18           0.8151022055          22.1800586236     SG+        A1 (1)
   40    19           0.8550849592          23.2680446638      DE        A1 (1)
   41   194           0.8550849592          23.2680446638      DE        A2 (4)
   42    96           0.8770967516          23.8670159876      PI        B1 (2)
   43   148           0.8770967516          23.8670159876      PI        B2 (3)
   44    20           0.8925547138          24.2876485216     SG+        A1 (1)
   45    97           1.0458593667          28.4592802092      PI        B1 (2)
   46   149           1.0458593667          28.4592802092      PI        B2 (3)
   47    21           1.1392152462          30.9996228394     SG+        A1 (1)
   48    22           1.3479668946          36.6800439793     SG+        A1 (1)
   49    98           1.4196874533          38.6316596005      PH        B1 (2)
   50   150           1.4196874533          38.6316596005      PH        B2 (3)
   51    99           1.4732420072          40.0889530990      PI        B1 (2)
   52   151           1.4732420072          40.0889530990      PI        B2 (3)
   53    23           1.5830198595          43.0761603255     SG+        A1 (1)
   54    24           1.5874433520          43.1965296769      DE        A1 (1)
   55   195           1.5874433520          43.1965296769      DE        A2 (4)
   56   100           1.6395330882          44.6139634599      PI        B1 (2)
   57   152           1.6395330882          44.6139634599      PI        B2 (3)
   58    25           1.6685507509          45.4035742039      DE        A1 (1)
   59   196           1.6685507509          45.4035742039      DE        A2 (4)
   60    26           1.9196280418          52.2357346312     SG+        A1 (1)
   61    27           1.9250178967          52.3824000391     SG+        A1 (1)
   62   101           2.0533308925          55.8739741640      PI        B1 (2)
   63   153           2.0533308925          55.8739741640      PI        B2 (3)
   64   197           2.0633066573          56.1454285232      PI        A2 (4)
   65    28           2.0633066573          56.1454285232      PI        A1 (1)
   66    29           2.1204506795          57.7003964206      DE        A1 (1)
   67   198           2.1204506795          57.7003964206      DE        A2 (4)
   68   102           2.1888954738          59.5628739606      PH        B1 (2)
   69   154           2.1888954738          59.5628739606      PH        B2 (3)
   70   155           2.2038487237          59.9697725754      PH        B2 (3)
   71   103           2.2038487237          59.9697725754      PH        B1 (2)
   72   104           2.2135186388          60.2329043433      PI        B1 (2)
   73   156           2.2135186388          60.2329043433      PI        B2 (3)
   74    30           2.2163558051          60.3101075621     SG+        A1 (1)
   75    31           2.2766605341          61.9510826637      DE        A1 (1)
   76   199           2.2766605341          61.9510826637      DE        A2 (4)
   77    32           2.3771070318          64.6843708238     SG+        A1 (1)
   78   105           2.4930480804          67.8392871513      PI        B1 (2)
   79   157           2.4930480804          67.8392871513      PI        B2 (3)
   80   200           2.6033581922          70.8409778955      DE        A2 (4)
   81    33           2.6033581922          70.8409778955      DE        A1 (1)
   82   106           2.6082220453          70.9733300679      PI        B1 (2)
   83   158           2.6082220453          70.9733300679      PI        B2 (3)
   84    34           2.6526404751          72.1820169916     SG+        A1 (1)
   85    35           2.8563189574          77.7243902632     SG+        A1 (1)
   86   107           3.3350437275          90.7511535254      PI        B1 (2)
   87   159           3.3350437275          90.7511535254      PI        B2 (3)
   88    36           3.7136801449         101.0543742478      PI        A1 (1)
   89   201           3.7136801449         101.0543742478      PI        A2 (4)
   90    37           3.8671255405         105.2298357389     SG+        A1 (1)
   91   160           3.8909404021         105.8778710692      PH        B2 (3)
   92   108           3.8909404021         105.8778710692      PH        B1 (2)
   93    38           4.0847738879         111.1523483672     SG+        A1 (1)
   94   161           4.1440556868         112.7654881256      PH        B2 (3)
   95   109           4.1440556868         112.7654881256      PH        B1 (2)
   96   110           4.1514187152         112.9658463134      PI        B1 (2)
   97   162           4.1514187152         112.9658463134      PI        B2 (3)
   98    39           4.1621592536         113.2581112222      DE        A1 (1)
   99   202           4.1621592536         113.2581112222      DE        A2 (4)
  100    40           4.3024135578         117.0746248674      DE        A1 (1)
  101   203           4.3024135578         117.0746248674      DE        A2 (4)
  102    41           4.3618331019         118.6915128628     SG+        A1 (1)
  103   111           4.5004441764         122.4633119532      PI        B1 (2)
  104   163           4.5004441764         122.4633119532      PI        B2 (3)
  105   204           4.6264448123         125.8919635670      DE        A2 (4)
  106    42           4.6264448123         125.8919635670      DE        A1 (1)
  107    43           4.8369415574         131.6198712018     SG+        A1 (1)
  108   112           5.0969549615         138.6951956287      PI        B1 (2)
  109   164           5.0969549615         138.6951956287      PI        B2 (3)
  110    44           5.1326775938         139.6672578741     SG+        A1 (1)
  111   113           5.3524852567         145.6485284616      PI        B1 (2)
  112   165           5.3524852567         145.6485284618      PI        B2 (3)
  113   205           5.8183259304         158.3246976392      PI        A2 (4)
  114    45           5.8183259304         158.3246976392      PI        A1 (1)
  115   166           5.8888883971         160.2447999741      PH        B2 (3)
  116   114           5.8888883971         160.2447999741      PH        B1 (2)
  117    46           5.9990887436         163.2435038537     SG+        A1 (1)
  118   206           6.0683494889         165.1281845490      DE        A2 (4)
  119    47           6.0683494889         165.1281845490      DE        A1 (1)
  120   167           6.1121677212         166.3205392666      PI        B2 (3)
  121   115           6.1121677212         166.3205392666      PI        B1 (2)
  122    48           6.1631237815         167.7071241594     SG+        A1 (1)
  123    49           6.2735161834         170.7110541313      DE        A1 (1)
  124   207           6.2735161834         170.7110541313      DE        A2 (4)
  125   168           6.3432997339         172.6099610807      PH        B2 (3)
  126   116           6.3432997339         172.6099610807      PH        B1 (2)
  127   208           6.4756293064         176.2108318121      DE        A2 (4)
  128    50           6.4756293064         176.2108318121      DE        A1 (1)
  129   117           6.7403308857         183.4137279723      PI        B1 (2)
  130   169           6.7403308857         183.4137279723      PI        B2 (3)
  131    51           7.0722522238         192.4457667640     SG+        A1 (1)
  132   170           7.1237109715         193.8460304763      PI        B2 (3)
  133   118           7.1237109715         193.8460304763      PI        B1 (2)
  134    52           7.6288049252         207.5903357031     SG+        A1 (1)
  135    53           9.4490251485         257.1210460726     SG+        A1 (1)
  136   171           9.6632474170         262.9503303542      PI        B2 (3)
  137   119           9.6632474170         262.9503303544      PI        B1 (2)
  138    54          10.6658547985         290.2326642108      PI        A1 (1)
  139   209          10.6658547985         290.2326642108      PI        A2 (4)
  140    55          10.6754193366         290.4929285237     SG+        A1 (1)
  141   172          10.7308727053         292.0018914018      PH        B2 (3)
  142   120          10.7308727053         292.0018914018      PH        B1 (2)
  143   210          10.9452535723         297.8354913664      DE        A2 (4)
  144    56          10.9452535723         297.8354913664      DE        A1 (1)
  145   121          10.9831049598         298.8654799824      PI        B1 (2)
  146   173          10.9831049598         298.8654799824      PI        B2 (3)
  147    57          11.1434469377         303.2286070201     SG+        A1 (1)
  148   122          11.9018442529         323.8656471322      PH        B1 (2)
  149   174          11.9018442529         323.8656471322      PH        B2 (3)
  150    58          11.9811553163         326.0238108856      DE        A1 (1)
  151   211          11.9811553163         326.0238108856      DE        A2 (4)
  152   175          12.2705946326         333.8998550931      PI        B2 (3)
  153   123          12.2705946326         333.8998550931      PI        B1 (2)
  154    59          12.5295934346         340.9475707947     SG+        A1 (1)
  155    60          12.7246203624         346.2545233017      DE        A1 (1)
  156   212          12.7246203624         346.2545233017      DE        A2 (4)
  157   124          13.1071187138         356.6628325900      PI        B1 (2)
  158   176          13.1071187138         356.6628325900      PI        B2 (3)
  159    61          13.4047736411         364.7624349385     SG+        A1 (1)
  160    62          17.2767877175         470.1252945007     SG+        A1 (1)
  161   125          18.6887235661         508.5460222138      PI        B1 (2)
  162   177          18.6887235661         508.5460222141      PI        B2 (3)
  163    63          19.5164309673         531.0690856503     SG+        A1 (1)
  164   213          26.2433227734         714.1171176769      DE        A2 (4)
  165    64          26.2433227734         714.1171176769      DE        A1 (1)
  166   178          26.5009790370         721.1283010499      PI        B2 (3)
  167   126          26.5009790370         721.1283010499      PI        B1 (2)
  168    65          26.9453749533         733.2209287114     SG+        A1 (1)
  169   179          33.3792620659         908.2958976841      PI        B2 (3)
  170   127          33.3792620659         908.2958976852      PI        B1 (2)
  171    66          34.2642278629         932.3770412832     SG+        A1 (1)
  172    67          35.5257501120         966.7048068692     SG+        A1 (1)
  173    68          47.0763774951        1281.0133571030      DE        A1 (1)
  174   214          47.0763774951        1281.0133571031      DE        A2 (4)
  175   128          47.2642125246        1286.1246081062      PI        B1 (2)
  176   180          47.2642125246        1286.1246081062      PI        B2 (3)
  177    69          47.4397206352        1290.9004265938     SG+        A1 (1)
  178    70          63.7061440418        1733.5323104575     SG+        A1 (1)
  179   129          66.2788018994        1803.5378897775      PI        B1 (2)
  180   181          66.2788018994        1803.5378897777      PI        B2 (3)
  181    71          66.8935061805        1820.2648436471     SG+        A1 (1)
  182   182          98.4986331422        2680.2840708082      PH        B2 (3)
  183   130          98.4986331422        2680.2840708082      PH        B1 (2)
  184    72          98.5128066985        2680.6697528832      DE        A1 (1)
  185   215          98.5128066985        2680.6697528832      DE        A2 (4)
  186   131          98.5259412365        2681.0271618327      PI        B1 (2)
  187   183          98.5259412365        2681.0271618327      PI        B2 (3)
  188    73          98.5342943540        2681.2544617140     SG+        A1 (1)
  189   216         103.3154689733        2811.3568373828      DE        A2 (4)
  190    74         103.3154689733        2811.3568373844      DE        A1 (1)
  191   184         103.3200574582        2811.4816964059      PH        B2 (3)
  192   132         103.3200574582        2811.4816964059      PH        B1 (2)
  193   133         103.3340583846        2811.8626809806      PI        B1 (2)
  194   185         103.3340583846        2811.8626809806      PI        B2 (3)
  195    75         103.3443812769        2812.1435811609     SG+        A1 (1)
  196   217         114.9487662294        3127.9149492238      DE        A2 (4)
  197    76         114.9487662294        3127.9149492238      DE        A1 (1)
  198   134         115.0744972458        3131.3362641174      PI        B1 (2)
  199   186         115.0744972458        3131.3362641174      PI        B2 (3)
  200    77         115.2693163703        3136.6375620087     SG+        A1 (1)
  201   187         116.6916529741        3175.3413086587      PI        B2 (3)
  202   135         116.6916529742        3175.3413086595      PI        B1 (2)
  203    78         117.4181182431        3195.1094336183     SG+        A1 (1)
  204    79         121.8057421818        3314.5027508293     SG+        A1 (1)
  205    80         198.5597842672        5403.0864175149      DE        A1 (1)
  206   218         198.5597842672        5403.0864175149      DE        A2 (4)
  207   136         198.6621659275        5405.8723641271      PI        B1 (2)
  208   188         198.6621659275        5405.8723641272      PI        B2 (3)
  209    81         198.7529391166        5408.3424281779     SG+        A1 (1)
  210    82         216.2327619056        5883.9925878530     SG+        A1 (1)
  211   137         224.7643336221        6116.1484568361      PI        B1 (2)
  212   189         224.7643336221        6116.1484568363      PI        B2 (3)
  213    83         225.2502353951        6129.3705162755     SG+        A1 (1)
  214   190         395.2328999075       10754.8339716766      PI        B2 (3)
  215   138         395.2328999075       10754.8339716769      PI        B1 (2)
  216    84         395.7911993675       10770.0260723355     SG+        A1 (1)
  217    85         508.5524768160       13838.4164256611     SG+        A1 (1)
  218    86         895.0445841977       24355.4013406981     SG+        A1 (1)


  VSCF finished.

 @CHECKOUT-I, Total execution time (CPU/WALL):       51.69/       9.38 seconds.
--executable xvscf finished with status     0 in        9.43 seconds (walltime).
 --invoking executable--
/nfs/workspaces/public/cfour_mpi/bin/xvtran
 @GETMEM-I,  Allocated    3814 MB of main memory.
  Full RHF integral transformation
  Transformation of IIII integrals :
  1 pass through the AO integral file was required.
     4413699 AO integrals were read.
     8619073 MO integrals were written to HF2.
  Transformation of IIJJ integrals :
  1 pass through the AO integral file was required.
    10029408 AO integrals were read.
    14362210 MO integrals were written to HF2.
  Transformation of IJIJ integrals :
  1 pass through the AO integral file was required.
    19047684 AO integrals were read.
    26677735 MO integrals were written to HF2.
  Transformation of IJKL integrals :
  1 pass through the AO integral file was required.
    14072863 AO integrals were read.
    18082744 MO integrals were written to HF2.
  Summary of active molecular orbitals: 
------------------------------------------------------------------------
 
  Index      Eigenvalue    Symmetry    Index      Eigenvalue    Symmetry
------------------------------------------------------------------------
     1       -20.6400802        1       110         4.1440557        2
     2       -11.5296934        1       111         4.1514187        2
     3        -1.2618710        1       112         4.5004442        2
     4        -0.8083196        1       113         5.0969550        2
     5        -0.5201884        1       114         5.3524853        2
     6        -0.4900252        2       115         5.8888884        2
     7        -0.4900252        3       116         6.1121677        2
     8         0.0597248        1       117         6.3432997        2
     9         0.0686355        1       118         6.7403309        2
    10         0.1563889        1       119         7.1237110        2
    11         0.1864379        1       120         9.6632474        2
    12         0.2214010        1       121        10.7308727        2
    13         0.2992785        1       122        10.9831050        2
    14         0.3043699        1       123        11.9018443        2
    15         0.4149871        1       124        12.2705946        2
    16         0.5141629        1       125        13.1071187        2
    17         0.5503322        1       126        18.6887236        2
    18         0.7013952        1       127        26.5009790        2
    19         0.7358083        1       128        33.3792621        2
    20         0.8151022        1       129        47.2642125        2
    21         0.8550850        1       130        66.2788019        2
    22         0.8925547        1       131        98.4986331        2
    23         1.1392152        1       132        98.5259412        2
    24         1.3479669        1       133       103.3200575        2
    25         1.5830199        1       134       103.3340584        2
    26         1.5874434        1       135       115.0744972        2
    27         1.6685508        1       136       116.6916530        2
    28         1.9196280        1       137       198.6621659        2
    29         1.9250179        1       138       224.7643336        2
    30         2.0633067        1       139       395.2328999        2
    31         2.1204507        1       140        -0.0138552        3
    32         2.2163558        1       141         0.0816747        3
    33         2.2766605        1       142         0.1808185        3
    34         2.3771070        1       143         0.2834319        3
    35         2.6033582        1       144         0.4068157        3
    36         2.6526405        1       145         0.6229244        3
    37         2.8563190        1       146         0.7293800        3
    38         3.7136801        1       147         0.7730582        3
    39         3.8671255        1       148         0.8770968        3
    40         4.0847739        1       149         1.0458594        3
    41         4.1621593        1       150         1.4196875        3
    42         4.3024136        1       151         1.4732420        3
    43         4.3618331        1       152         1.6395331        3
    44         4.6264448        1       153         2.0533309        3
    45         4.8369416        1       154         2.1888955        3
    46         5.1326776        1       155         2.2038487        3
    47         5.8183259        1       156         2.2135186        3
    48         5.9990887        1       157         2.4930481        3
    49         6.0683495        1       158         2.6082220        3
    50         6.1631238        1       159         3.3350437        3
    51         6.2735162        1       160         3.8909404        3
    52         6.4756293        1       161         4.1440557        3
    53         7.0722522        1       162         4.1514187        3
    54         7.6288049        1       163         4.5004442        3
    55         9.4490251        1       164         5.0969550        3
    56        10.6658548        1       165         5.3524853        3
    57        10.6754193        1       166         5.8888884        3
    58        10.9452536        1       167         6.1121677        3
    59        11.1434469        1       168         6.3432997        3
    60        11.9811553        1       169         6.7403309        3
    61        12.5295934        1       170         7.1237110        3
    62        12.7246204        1       171         9.6632474        3
    63        13.4047736        1       172        10.7308727        3
    64        17.2767877        1       173        10.9831050        3
    65        19.5164310        1       174        11.9018443        3
    66        26.2433228        1       175        12.2705946        3
    67        26.9453750        1       176        13.1071187        3
    68        34.2642279        1       177        18.6887236        3
    69        35.5257501        1       178        26.5009790        3
    70        47.0763775        1       179        33.3792621        3
    71        47.4397206        1       180        47.2642125        3
    72        63.7061440        1       181        66.2788019        3
    73        66.8935062        1       182        98.4986331        3
    74        98.5128067        1       183        98.5259412        3
    75        98.5342944        1       184       103.3200575        3
    76       103.3154690        1       185       103.3340584        3
    77       103.3443813        1       186       115.0744972        3
    78       114.9487662        1       187       116.6916530        3
    79       115.2693164        1       188       198.6621659        3
    80       117.4181182        1       189       224.7643336        3
    81       121.8057422        1       190       395.2328999        3
    82       198.5597843        1       191         0.2214010        4
    83       198.7529391        1       192         0.5503322        4
    84       216.2327619        1       193         0.7358083        4
    85       225.2502354        1       194         0.8550850        4
    86       395.7911994        1       195         1.5874434        4
    87       508.5524768        1       196         1.6685508        4
    88       895.0445842        1       197         2.0633067        4
    89        -0.0138552        2       198         2.1204507        4
    90         0.0816747        2       199         2.2766605        4
    91         0.1808185        2       200         2.6033582        4
    92         0.2834319        2       201         3.7136801        4
    93         0.4068157        2       202         4.1621593        4
    94         0.6229244        2       203         4.3024136        4
    95         0.7293800        2       204         4.6264448        4
    96         0.7730582        2       205         5.8183259        4
    97         0.8770968        2       206         6.0683495        4
    98         1.0458594        2       207         6.2735162        4
    99         1.4196875        2       208         6.4756293        4
   100         1.4732420        2       209        10.6658548        4
   101         1.6395331        2       210        10.9452536        4
   102         2.0533309        2       211        11.9811553        4
   103         2.1888955        2       212        12.7246204        4
   104         2.2038487        2       213        26.2433228        4
   105         2.2135186        2       214        47.0763775        4
   106         2.4930481        2       215        98.5128067        4
   107         2.6082220        2       216       103.3154690        4
   108         3.3350437        2       217       114.9487662        4
   109         3.8909404        2       218       198.5597843        4
------------------------------------------------------------------------
  -20.6400802067113       -11.5296934053393       -1.26187096816891     
 -0.808319585250939      -0.520188360478884      -0.490025217020621     
 -0.490025217020600       5.972477813543432E-002  6.863552602706967E-002
  0.156388880777525       0.186437905915746       0.221400960541548     
  0.299278504862562       0.304369850379526       0.414987127388698     
  0.514162884870897       0.550332214691748       0.701395211933571     
  0.735808252401796       0.815102205485247       0.855084959179379     
  0.892554713759403        1.13921524619711        1.34796689459478     
   1.58301985945528        1.58744335199344        1.66855075085586     
   1.91962804181323        1.92501789670543        2.06330665728609     
   2.12045067949677        2.21635580505302        2.27666053405152     
   2.37710703175176        2.60335819220170        2.65264047514642     
   2.85631895742614        3.71368014489975        3.86712554051479     
   4.08477388794655        4.16215925362219        4.30241355782872     
   4.36183310190694        4.62644481231986        4.83694155740120     
   5.13267759382413        5.81832593043369        5.99908874363558     
   6.06834948894834        6.16312378147745        6.27351618335095     
   6.47562930637853        7.07225222382651        7.62880492518873     
[...]
 Convergence information after    16 iterations: 
 Largest element of residual vector :  0.10817715E-05.
 Largest element of DIIS residual   :  0.35727042E-06.
 Convergence information after    17 iterations: 
 Largest element of residual vector :  0.49918067E-06.
 Largest element of DIIS residual   :  0.20855355E-06.
 Convergence information after    18 iterations: 
 Largest element of residual vector :  0.88964780E-07.
 Largest element of DIIS residual   : -0.39746185E-07.
 Perturbed amplitude equations converged in    18 iterations.
  Dominant contributions to perturbed wavefunction:
    7    7  140   45  -0.2297203676 ABAB
    7    7   45  140  -0.2297203676 ABAB
    7    7  140   22  -0.2206556676 ABAB
    7    7   22  140  -0.2206556676 ABAB
    7    7  140   28   0.2159569186 ABAB
    7    7   28  140   0.2159569186 ABAB
    7    0   36    0   0.1975610975 AA  
    7    7  140   39  -0.1844490008 ABAB
    7    7   39  140  -0.1844490008 ABAB
    7    0   45    0   0.1700509710 AA  
    7    7  140   32  -0.1689300819 ABAB
    7    7   32  140  -0.1689300819 ABAB
    7    0   22    0   0.1688191843 AA  
    7    0   39    0   0.1580019733 AA  
    7    7  140   57  -0.1567199489 ABAB
    7    7   57  140  -0.1567199489 ABAB
    7    0   28    0  -0.1559904631 AA  
    7    7  140   36  -0.1440081554 ABAB
    7    7   36  140  -0.1440081554 ABAB
    7    6   45   89  -0.1432882869 ABAB
  norm of converged amps    1.61657576249074     
 Starting iterative solution of the perturbed Lambda equations.
 The DIIS procedure is used to accelerate convergence.
 Convergence criterion is 10**(-7).
 Maximum number of iterations is 100.
 Convergence information after     1 iterations: 
 Largest element of residual vector :  0.80315622E-01.
 Largest element of DIIS residual   :  0.80315622E-01.
 Convergence information after     2 iterations: 
 Largest element of residual vector :  0.17473509E-01.
 Largest element of DIIS residual   :  0.13622216E-01.
 Convergence information after     3 iterations: 
 Largest element of residual vector :  0.70580581E-02.
 Largest element of DIIS residual   :  0.62027729E-02.
 Convergence information after     4 iterations: 
 Largest element of residual vector :  0.35738135E-02.
 Largest element of DIIS residual   :  0.32956910E-02.
 Convergence information after     5 iterations: 
 Largest element of residual vector :  0.32755900E-02.
 Largest element of DIIS residual   :  0.27550803E-02.
 Convergence information after     6 iterations: 
 Largest element of residual vector :  0.18167084E-02.
 Largest element of DIIS residual   :  0.81727661E-03.
 Convergence information after     7 iterations: 
 Largest element of residual vector :  0.87811347E-03.
 Largest element of DIIS residual   :  0.44052273E-03.
 Convergence information after     8 iterations: 
 Largest element of residual vector :  0.32623940E-03.
 Largest element of DIIS residual   : -0.20037377E-03.
 Convergence information after     9 iterations: 
 Largest element of residual vector :  0.14434448E-03.
 Largest element of DIIS residual   : -0.89302480E-04.
 Convergence information after    10 iterations: 
 Largest element of residual vector : -0.78774594E-04.
 Largest element of DIIS residual   : -0.42607126E-04.
 Convergence information after    11 iterations: 
 Largest element of residual vector : -0.21845553E-04.
 Largest element of DIIS residual   : -0.77179431E-05.
 Convergence information after    12 iterations: 
 Largest element of residual vector :  0.91471504E-05.
 Largest element of DIIS residual   :  0.54445767E-05.
 Convergence information after    13 iterations: 
 Largest element of residual vector :  0.23823972E-05.
 Largest element of DIIS residual   :  0.20136649E-05.
 Convergence information after    14 iterations: 
 Largest element of residual vector :  0.25833836E-05.
 Largest element of DIIS residual   :  0.15534173E-05.
 Convergence information after    15 iterations: 
 Largest element of residual vector :  0.14112085E-05.
 Largest element of DIIS residual   :  0.69845698E-06.
 Convergence information after    16 iterations: 
 Largest element of residual vector :  0.65923089E-06.
 Largest element of DIIS residual   :  0.21147319E-06.
 Convergence information after    17 iterations: 
 Largest element of residual vector :  0.30418525E-06.
 Largest element of DIIS residual   :  0.13096935E-06.
 Convergence information after    18 iterations: 
 Largest element of residual vector :  0.62634552E-07.
 Largest element of DIIS residual   : -0.29104679E-07.
 Perturbed Lambda equations converged in    18 iterations.
  Dominant contributions to perturbed wavefunction:
    7    7  140   45  -0.1817324982 ABAB
    7    7   45  140  -0.1817324982 ABAB
    7    7  140   22  -0.1733926362 ABAB
    7    7   22  140  -0.1733926362 ABAB
    7    7  140   28   0.1707110607 ABAB
    7    7   28  140   0.1707110607 ABAB
    7    7  140   39  -0.1438213463 ABAB
    7    7   39  140  -0.1438213463 ABAB
    7    7  140   32  -0.1335232735 ABAB
    7    7   32  140  -0.1335232735 ABAB
    7    7  140   57  -0.1226955337 ABAB
    7    7   57  140  -0.1226955337 ABAB
    7    6   45   89  -0.1127030091 ABAB
    6    7   89   45  -0.1127030091 ABAB
    7    6   22   89  -0.1067559364 ABAB
    6    7   89   22  -0.1067559364 ABAB
    7    7  140   16   0.1061727396 ABAB
    7    7   16  140   0.1061727396 ABAB
    7    7  140   36  -0.1058616383 ABAB
    7    7   36  140  -0.1058616383 ABAB
        The DBOC first-order density matrix is being calculated 
             (Symmetry block 3, perturbation   2)
 term   2.71527232630895     
 final tnorm  0.767074171110444     
  norm contr. I: |<0|L dT/dx|0>|^2   0.000000000000000E+000
  norm contr. II: <0|[nabla(1+L)e-T][nabla e^T]|0>   2.71527232630895     
  total norm contribution   2.71527232630895     
 oo  9.124921709878950E-003
 vv  -18.0411621852126     
 vo  4.487341348786865E-002
  Correlated perturbed 1-el contribution to DBOC  -17.9871638500148       cm**-1
  SUM_I |dc_I/dx|^2 contribution to DBOC   9.08366867720958       cm**-1
 
 
  The total diagonal Born-Oppenheimer correction (DBOC) is:      0.0038700637 a.u.
  The total diagonal Born-Oppenheimer correction (DBOC) is:        849.380799 cm-1
 
 Total CC energy including DBOC  -113.056434056130     
 First-order density matrix is being calculated  (Symmetry block 3, perturbation   2)
 Calculation of the contributions of <pq||rs> to dI(i,j)/dx required   3.7 seconds.
 Calculation of the contributions of <pq||rs> to dI(a,b)/dx required  15.7 seconds.
 Calculation of the contributions of <pq||rs> to dI(i,a)/dx required   9.4 seconds.
 First-order Z-vector equations are solved for 1 perturbation.
 Convergence reached after  19 iterations.
        U*G(pq,rs) contribution is being calculated
             (Symmetry block 3, perturbation   2)

 CCSD contribution to force constants 

        0.0000000000        0.0000000000        0.0000000000
        0.0000000000        0.0000000000        0.0000000000
        0.0000000000        0.0000000000        0.0000000000
        0.0000000000        0.0000000000        0.0000000000
        0.0000000000        0.0000000000        0.0000000000
        0.0000000000        0.0000000000        0.0000000000
        0.0000000000        0.0000000000        0.0000000000
        0.0000000000        0.0000000000        0.0000000000
        0.0000000000        0.0000000000        0.0000000000
        0.0000000000        0.0000000000        0.0000000000
        0.0000000000        0.0000000000        0.0000000000
        0.0000000000       -6.1645927476        6.1645927476

 CCSD contribution to dipole derivatives 

        0.0000000000        0.0000000000        0.0000000000
        0.0000000000        0.0000000000        0.0000000000
        0.0000000000        0.0000000000        0.0000000000
        0.0000000000        0.0000000000       -0.0573602606
        0.0000000000        0.0000000000        0.0000000000
        0.0000000000        0.0000000000        0.0000000000
 @CHECKOUT-I, Total execution time (CPU/WALL):     1202.24/     452.20 seconds.
--executable xsdcc finished with status     0 in      452.40 seconds (walltime).
 --invoking executable--
/nfs/workspaces/public/cfour_mpi/bin/xanti
 @GETMEM-I,  Allocated    3814 MB of main memory.
 CCSD MO derivative gammas will be sorted to Mulliken order.
 @CHECKOUT-I, Total execution time (CPU/WALL):       11.68/      19.36 seconds.
--executable xanti finished with status     0 in       19.55 seconds (walltime).
 --invoking executable--
/nfs/workspaces/public/cfour_mpi/bin/xbcktrn
 @GETMEM-I,  Allocated    3814 MB of main memory.
 CCSD MO derivative gammas will be transformed to the AO basis.
 @CHECKOUT-I, Total execution time (CPU/WALL):       20.20/      12.60 seconds.
--executable xbcktrn finished with status     0 in       12.66 seconds (walltime).
 --invoking executable--
/nfs/workspaces/public/cfour_mpi/bin/xvdint
 @GETMEM-I,  Allocated    3814 MB of main memory.
 One- and two-electron integral derivatives are calculated
 for RHF-CC/MBPT hessians and dipole derivatives.
 Spherical gaussians are used.
  magnet F F
                    8722  records have been written to the Sort file.
  Total length of Sort file :             178609116  words.
 Evaluation of 2el integral derivatives

                      Two-electron integral gradient
                      ------------------------------

                         C #1 z     0.0000000000
                         O #2 z     0.0000000000


 C #1       0.0000000000            0.0810530980            0.0000000000
 O #2       0.0000000000           -0.0810530980            0.0000000000


 Evaluation of 2e integral derivatives required  291.17 seconds.
  contribution to Hessian
        0.0000000000        0.0000000000        0.0000000000
        0.0000000000        0.0810530980       -0.0810530980
 @CHECKOUT-I, Total execution time (CPU/WALL):      291.16/      63.41 seconds.
--executable xvdint finished with status     0 in       63.58 seconds (walltime).
 --invoking executable--
/nfs/workspaces/public/cfour_mpi/bin/xanti
 @GETMEM-I,  Allocated    3814 MB of main memory.
 CCSD MO gammas will be sorted to Mulliken order.
 @CHECKOUT-I, Total execution time (CPU/WALL):       16.56/      48.16 seconds.
--executable xanti finished with status     0 in       48.29 seconds (walltime).
 --invoking executable--
/nfs/workspaces/public/cfour_mpi/bin/xbcktrn
 @GETMEM-I,  Allocated    3814 MB of main memory.
 CCSD MO gammas will be transformed to the AO basis.
 @CHECKOUT-I, Total execution time (CPU/WALL):       59.27/      19.17 seconds.
--executable xbcktrn finished with status     0 in       19.24 seconds (walltime).
 --invoking executable--
/nfs/workspaces/public/cfour_mpi/bin/xvdint
 @GETMEM-I,  Allocated    3814 MB of main memory.
 One- and two-electron integral derivatives are calculated
 for RHF-CC/MBPT hessians and dipole derivatives.
 Spherical gaussians are used.
  magnet F F

                     Kinetic energy integral gradient
                     --------------------------------

                         C #1 z    -0.4801095822
                         O #2 z     0.4801095822


 C #1       0.0000000000            0.0000000000           -0.4801095822
 O #2       0.0000000000            0.0000000000            0.4801095822



                   Nuclear attraction integral gradient
                   ------------------------------------

                         C #1 z    13.0118854144
                         O #2 z   -13.0118854144


 C #1       0.0000000000            0.0000000000           13.0118854144
 O #2       0.0000000000            0.0000000000          -13.0118854144



                      Reorthonormalization gradient
                      -----------------------------

                         C #1 z     0.0000000000
                         O #2 z     0.0000000000


 C #1       0.0000000000            0.0000000000            0.0000000000
 O #2       0.0000000000            0.0000000000            0.0000000000



                     Kinetic energy integral Hessian
                     -------------------------------


           Symmetry 1

           C #1 z      O #2 z

 C #1 z    0.506632
 O #2 z   -0.506632    0.506632


           Symmetry 2

           C #1 x      O #2 x

 C #1 x   -0.349443
 O #2 x    0.349443   -0.349443


           Symmetry 3

           C #1 y      O #2 y

 C #1 y   -0.349443
 O #2 y    0.349443   -0.349443




           C #1 x      C #1 y      C #1 z      O #2 x      O #2 y      O #2 z

 C #1 x   -0.349443
 C #1 y    0.000000   -0.349443
 C #1 z    0.000000    0.000000    0.506632

 O #2 x    0.349443    0.000000    0.000000   -0.349443
 O #2 y    0.000000    0.349443    0.000000    0.000000   -0.349443
 O #2 z    0.000000    0.000000   -0.506632    0.000000    0.000000    0.506632




                   Nuclear attraction integral Hessian
                   -----------------------------------


           Symmetry 1

           C #1 z      O #2 z

 C #1 z   -7.834990
 O #2 z    7.834990   -7.834990


           Symmetry 2

           C #1 x      O #2 x

 C #1 x    6.658816
 O #2 x   -6.658816    6.658816


           Symmetry 3

           C #1 y      O #2 y

 C #1 y    6.658816
 O #2 y   -6.658816    6.658816




           C #1 x      C #1 y      C #1 z      O #2 x      O #2 y      O #2 z

 C #1 x    6.658816
 C #1 y    0.000000    6.658816
 C #1 z    0.000000    0.000000   -7.834990

 O #2 x   -6.658816    0.000000    0.000000    6.658816
 O #2 y    0.000000   -6.658816    0.000000    0.000000    6.658816
 O #2 z    0.000000    0.000000    7.834990    0.000000    0.000000   -7.834990




                Highest order reorthonormalization Hessian
                ------------------------------------------


           Symmetry 1

           C #1 z      O #2 z

 C #1 z    0.000000
 O #2 z    0.000000    0.000000


           Symmetry 2

           C #1 x      O #2 x

 C #1 x    0.000000
 O #2 x    0.000000    0.000000


           Symmetry 3

           C #1 y      O #2 y

 C #1 y    0.000000
 O #2 y    0.000000    0.000000




           C #1 x      C #1 y      C #1 z      O #2 x      O #2 y      O #2 z




                Electronic contributions to dipole moment
                -----------------------------------------

                               au             Debye

                    z     -0.71684100     -1.82202840

  Conversion factor used: 1 a.u. =   2.54174691 Debye 



   Electronic contributions to static part of dipole moment derivatives
   --------------------------------------------------------------------


                     Total dipole moment derivatives
                     -------------------------------


           Symmetry 1
                              Ez

               C #1 z    -5.62603033
               O #2 z    -8.37396967

           Symmetry 2
                              Ex

               C #1 x    -5.67698733
               O #2 x    -8.32301267

           Symmetry 3
                              Ey

               C #1 y    -5.67698733
               O #2 y    -8.32301267



                       Ex          Ey          Ez

      C #1    x   -5.676987    0.000000    0.000000
      C #1    y    0.000000   -5.676987    0.000000
      C #1    z    0.000000    0.000000   -5.626030

      O #2    x   -8.323013    0.000000    0.000000
      O #2    y    0.000000   -8.323013    0.000000
      O #2    z    0.000000    0.000000   -8.373970

 Evaluation of 1e integral derivatives required    1.67 seconds.
                    8815  records have been written to the Sort file.
  Total length of Sort file :             180513570  words.
 Evaluation of 2el integral derivatives

                      Two-electron integral gradient
                      ------------------------------

                         C #1 z    -7.0036598763
                         O #2 z     7.0036598763


 C #1       0.0000000000            0.0000000000           -7.0036598763
 O #2       0.0000000000            0.0000000000            7.0036598763


 Evaluation of 2e integral derivatives required  644.67 seconds.

                            Molecular gradient
                            ------------------

                         C #1 z     0.5598760485
                         O #2 z    -0.5598760485


 C #1       0.0000000000            0.0000000000            0.5598760485
 O #2       0.0000000000            0.0000000000           -0.5598760485


  Molecular gradient norm 0.792E+00

                            Molecular hessian
                            -----------------


           Symmetry 1

           C #1 z      O #2 z

 C #1 z   12.819040
 O #2 z  -12.819040   12.819040


           Symmetry 2

           C #1 x      O #2 x

 C #1 x    6.326265
 O #2 x   -6.326265    6.326265


           Symmetry 3

           C #1 y      O #2 y

 C #1 y    6.326265
 O #2 y   -6.326265    6.326265




           C #1 x      C #1 y      C #1 z      O #2 x      O #2 y      O #2 z

 C #1 x    6.326265
 C #1 y    0.000000    6.326265
 C #1 z    0.000000    0.000000   12.819040

 O #2 x   -6.326265    0.000000    0.000000    6.326265
 O #2 y    0.000000   -6.326265    0.000000    0.000000    6.326265
 O #2 z    0.000000    0.000000  -12.819040    0.000000    0.000000   12.819040




                           Total dipole moment
                           -------------------

                               au             Debye

                    z      0.52598151      1.33691187

  Conversion factor used: 1 a.u. =   2.54174691 Debye 



                     Total dipole moment derivatives
                     -------------------------------


           Symmetry 1
                              Ez

               C #1 z     0.55417259
               O #2 z    -0.55417259

           Symmetry 2
                              Ex

               C #1 x     0.17787886
               O #2 x    -0.17787886

           Symmetry 3
                              Ey

               C #1 y     0.17787886
               O #2 y    -0.17787886



                       Ex          Ey          Ez

      C #1    x    0.177879    0.000000    0.000000
      C #1    y    0.000000    0.177879    0.000000
      C #1    z    0.000000    0.000000    0.554173

      O #2    x   -0.177879    0.000000    0.000000
      O #2    y    0.000000   -0.177879    0.000000
      O #2    z    0.000000    0.000000   -0.554173

 @CHECKOUT-I, Total execution time (CPU/WALL):      646.32/     110.09 seconds.
--executable xvdint finished with status     0 in      110.31 seconds (walltime).
 --invoking executable--
/nfs/workspaces/public/cfour_mpi/bin/xjoda
  @GTFLGS-I, Hessian will be transformed to curvilinear coordinates.
  @GTFLGS-I, Hessian will be transformed to curvilinear coordinates.
  igrd and ihes are                      0                     1
  gradient from JOBARC 
   0.000000000000000   0.000000000000000   0.559876048540446
   0.000000000000000   0.000000000000000  -0.559876048540446
 
  @PROJFCM-I, Projecting force constant matrix onto totally symmetric subspace.
  Largest difference between matrix elements of symmetrized
  and unsymmetrized FCM :    -0.4458655667E-12.
  read isotopes from ZMAT file 
 
  Summary of diagonal Born-Oppenheimer correction at the correlated level
  The total diagonal Born-Oppenheimer correction (DBOC) is:      0.0038700637 a.u.
  The total diagonal Born-Oppenheimer correction (DBOC) is:        849.380799 cm-1
  The total diagonal Born-Oppenheimer correction (DBOC) is:            10.161 kJ/mole
  hellooooooo 
  readis is  F
 
 @CHECKOUT-I, Total execution time (CPU/WALL):        0.02/       0.11 seconds.
--executable xjoda finished with status     0 in        0.21 seconds (walltime).
  The final electronic energy is      -113.056434056129618 a.u. 
  This computation required                         4057.19 seconds (walltime).
