 --invoking executable--
/nfs/workspaces/public/cfour_mpi/bin/xjoda


   *************************************************************************
         <<<     CCCCCC     CCCCCC   |||     CCCCCC     CCCCCC   >>>
       <<<      CCC        CCC       |||    CCC        CCC         >>>
      <<<      CCC        CCC        |||   CCC        CCC            >>>
    <<<        CCC        CCC        |||   CCC        CCC              >>>
      <<<      CCC        CCC        |||   CCC        CCC            >>>
       <<<      CCC        CCC       |||    CCC        CCC         >>>
         <<<     CCCCCC     CCCCCC   |||     CCCCCC     CCCCCC   >>>
   *************************************************************************

     ****************************************************************
     * CFOUR Coupled-Cluster techniques for Computational Chemistry *
     ****************************************************************
 

   Department of Chemistry                Institut fuer Physikalische Chemie
   University of Florida                  Universitaet Mainz
   Gainesville, FL 32611, USA             D-55099 Mainz, Germany

   Department of Chemistry                Fakultaet fuer Chemie und Biowiss.
   Johns Hopkins University               Karlsruher Institut fuer Technologie
   Baltimore, MD 21218, USA               D-76131 Karlsruhe, Germany

   Department of Chemistry                Department of Physical Chemistry
   Southern Methodist University          Eotvos Lorand University
   Dallas, TX 75275, USA                  H-1053 Budapest, Hungary

 
                       Version 2.1
 
                     vincent.theory.phys.ucl.ac.uk                     
                     Sat  1 Mar 13:24:19 GMT 2025                      
                     integer*8 version is running
 
********************************************************************************
*                          Input from ZMAT file                                *
********************************************************************************
Carbon Monoxide DBOC calculation                                                
C                                                                               
O 1 r                                                                           
                                                                                
r=1.0551724137931036                                                            
                                                                                
                                                                                
*CFOUR(CALC=CCSD,BASIS=AUG-PCVQZ,SCF_CONV=10                                    
CC_CONV=14,DBOC=ON,MEMORY=500000000                                             
ZFIELD=200)                                                                     
                                                                                
%isotopes                                                                       
12                                                                              
18                                                                              
********************************************************************************
  @GTFLGS-I, Hessian will be transformed to curvilinear coordinates.
    -------------------------------------------------------------------
                    CFOUR Control Parameters 
    -------------------------------------------------------------------
        External           Internal           Value            Units
          Name               Name
    -------------------------------------------------------------------
       ABCDTYPE             IABCDT         STANDARD    [  0]    ***   
       ANHARMONIC           IANHAR         OFF         [  0]    ***   
       ANH_ALGORIT          IANALG         STANDARD    [  0]    ***   
       ANH_DERIVAT          IANDER         SECOND      [  1]    ***   
       ANH_MODE             ANHMOD         VIBRATION   [  0]    ***   
       ANH_STEPSIZ          ICUBST             50000          x 10-6  
       ANH_SYMMETR          IANHSM         ABELIAN     [  0]    ***   
       AO_LADDERS           IAOLAD         SINGLEPASS  [  1]    ***   
       AV_SCF               IAVSCF         OFF         [  0]    ***   
       BASIS                IBASIS         AUG-PCVQZ   [ 52]    ***   
       BOTHVECTORS          BOTHVC         OFF         [  0]    ***   
       BOX_POTENT           IPIAB          OFF         [  0]    ***   
       BREIT                IBREIT         OFF         [  0]    ***   
       BRUCK_CONV           IBRTOL          10D-  4             ***   
       BRUECKNER            IBRKNR         OFF         [  0]    ***   
       BUFFERSIZE           IBUFFS              4096            ***   
       CACHE_RECS           ICHREC             10               ***   
       CALCLEVEL            ICLLVL         CCSD        [ 10]    ***   
       CCORBOPT             ICCORB         OFF         [  0]  x 0.01  
       CC_CONV              ICCCNV          10D- 14             ***   
       CC_EXPORDER          ICCEOR              5               ***   
       CC_EXTRAPOL          ICCEXT         DIIS        [  1]    ***   
       CC_GUESS             ICCGES         MP2         [  0]    ***   
       CC_MAXCYC            ICCCYC            100              cycles 
       CC_PROGRAM           ICCPRO         VCC         [  0]    ***   
       CHARGE               ICHRGE              0               ***   
       CHOLESKY             ICHOLE         OFF         [  0]    ***   
       CIS_CONV             ICISTL              5               ***   
       COMM_SIZE            IPSIZE            ***               ***   
       CONSTANT             ICONST         OLD         [  1]    ***   
       CONTINUUM            ICONTU         NONE        [  0]    ***   
       CONTRACTION          ICNTYP         GENERAL     [  1]    ***   
       COORDINATES          ICOORD         INTERNAL    [  0]    ***   
       CPHF_CONVER          ICPHFT          10D- 16             ***   
       CPHF_MAXCYC          ICPHFC             64              cycles 
       CUBIC                ICUBIC         OFF         [  0]    ***   
       CURVILINEAR          ICURVY         ON          [  1]    ***   
       DBOC                 IDBOC          ON          [  1]    ***   
       DCT                  IDCT           OFF         [  0]    ***   
       DERIV_LEV            IDRLVL         SECOND      [  2]    ***   
       DEVMEM_SIZE          IDVMEM          50000000           MByte  
       DIAG_MRCC            IEOMST          10D-  0             ***   
       DIFF_TYPE            IDIFTY         RELAXED     [  0]    ***   
       DIRECT               IDIRCT         OFF         [  0]    ***   
       DROPMO               IDRPMO      NONE         
       ECP                  IECP           OFF         [  0]    ***   
       EIGENVECTOR          IVEC                1               ***   
       EL_ANHARM            IELANH         OFF         [  0]    ***   
       EOMFOLLOW            IEOMSR         ENERGY      [  0]    ***   
       EOMIP                IEOMIP         OFF         [  0]    ***   
       EOMLEVEL             HBARFM         SAME        [  0]    ***   
       EOM_MRCC             IMRCCE         NEW         [  1]    ***   
       EOM_NONIT            EOMNON         OFF         [  0]    ***   
       EOM_NSING            IEOMSI          10D-  0             ***   
       EOM_NSTATES          IMRCCD         DAVIDSON    [  0]    ***   
       EOM_NTRIP            IEOMTR          10D-  0             ***   
       EOM_ORDER            IEXORD         ENERGY      [  0]    ***   
       EOM_PROPSTA          IEOMST              0               ***   
       ESTATE_CONV          IEXTOL          10D-  5             ***   
       ESTATE_DIAG          IEXDIG         ITERATIVE   [  0]    ***   
       ESTATE_LOCK          IESLOC         ON          [  1]    ***   
       ESTATE_MAXC          IEXMXC             40               ***   
       ESTATE_PROP          IEXPRP         OFF         [  0]    ***   
       EVAL_HESS            IRECAL              0            # of cyc.
       EXCITATION           IEXCIT              0               ***   
       EXCITE               IEXCIT         NONE        [  0]    ***   
       EXTERN_POT           IEXPOT         OFF         [  0]    ***   
       FCGRADNEW            IFCGNW         OFF         [  0]    ***   
       FC_FIELD             IFINFC              0             x 10-6  
       FD_CALTYPE           IFDCAL         GRADONLY    [  0]    ***   
       FD_PROJECT           IFDPRJ         OFF         [  1]    ***   
       FD_STEPSIZE          IDISFD              0            10-4 bohr
       FD_USEGROUP          IFDGRP         FULL        [  0]    ***   
       FILE_RECSIZ          IFLREC              4096           words  
       FINITE_PERT          IFIPER              0             x 10-6  
       FIXGEOM              IFIXGM         OFF         [  0]    ***   
       FOCK                 IFOCK          AO          [  1]    ***   
       FREQ_ALGORI          IVIALG         STANDARD    [  0]    ***   
       FROZEN_CORE          IFROCO         OFF         [  0]    ***   
       GAMMA_ABCD           IGABCD         STORE       [  0]    ***   
       GAMMA_ABCI           IGABCI         STORE       [  0]    ***   
       GENBAS_1             IGNBS1              0               ***   
       GENBAS_2             IGNBS2              0               ***   
       GENBAS_3             IGNBS3              0               ***   
       GENBAS_4             IGNBS4              0               ***   
       GEO_CONV             ICONTL              5              H/bohr 
       GEO_MAXCYC           IOPTCY             50               ***   
       GEO_MAXSTEP          IMXSTP            300            millibohr
       GEO_METHOD           INR            SINGLE_POINT[  5]    ***   
       GIAO                 IGIAO          OFF         [  1]    ***   
       GIMIC                IGIMIC         OFF         [  0]    ***   
       GRID                 IGRID          OFF         [  0]    ***   
       GRID_ALGO            IGALGO         SERIAL      [  0]    ***   
       GUESS                IGUESS         MOREAD      [  0]    ***   
       HBAR                 IHBAR          OFF         [  0]    ***   
       HESS_TYPE            IHESTP         SCF         [  0]    ***   
       HF2_FILE             IHF2Fl         USE         [  1]    ***   
       HFSTABILITY          ISTABL         OFF         [  0]    ***   
       INCORE               INCORE         OFF         [  0]    ***   
       INPUT_MRCC           IMRCC          ON          [  1]    ***   
       INTEGRALS            INTTYP         VMOL        [  1]    ***   
       JODA_PRINT           IJPRNT              0               ***   
       KEYWORD_OUT          IDMPKW         NO          [  0]    ***   
       LINDEP_TOL           ILINDP              8               ***   
       LINEQ_CONV           IZTACN          10D-  7           cycles  
       LINEQ_EXPOR          ILMAXD              5               ***   
       LINEQ_MAXCY          ILMAXC            100               ***   
       LINEQ_TYPE           ILTYPE         DIIS        [  1]    ***   
       LOCK_ORBOCC          ILOCOC         OFF         [  0]    ***   
       MEMORY_SIZE          IMEMSZ         500000000           words  
       MEM_UNIT             IMEMU          INTEGERWORDS[  0]    ***   
       MRCC                 IMRCCC         OFF         [  0]    ***   
       MULTIPLICTY          IMULTP              1               ***   
       NACOUPLING           IVCOUP         OFF         [  0]    ***   
       NEGEVAL              IDIE           ABORT       [  0]    ***   
       NEWNORM              INEWNO         OFF         [  0]    ***   
       NON-HF               INONHF         OFF         [  0]    ***   
       NTOP_TAMP            ITOPT2             15               ***   
       NUC_MODEL            INUCMO         POINT       [  0]    ***   
       OCCUPATION           IOCCU   ESTIMATED BY SCF 
       OPEN-SHELL           IOPEN          SPIN-ORBITAL[  0]    ***   
       OPTVIB               IOPTVB         OFF         [  0]    ***   
       ORBITALS             IORBTP         STANDARD    [  0]    ***   
       PARALLEL             IPARAL         ON          [  1]    ***   
       PARA_INT             IPINTS         ON          [  1]    ***   
       PARA_PRINT           IPPRIN              0               ***   
       PERT_ORB             IPTORB         STANDARD    [  0]    ***   
       POINTS               IGRDFD              0               ***   
       PRINT                IPRNT               0               ***   
       PROPS                IPROPS         OFF         [  0]    ***   
       PROP_INTEGR          IINTYP         INTERNAL    [  0]    ***   
       PSI                  IPSI           OFF         [  0]    ***   
       QC_ALG               IQCALG         FLM         [  0]    ***   
       QC_LINALG            IQCLIN         TRIDIAG     [  2]    ***   
       QC_MAXCYC            IQCMAX          10D-100           cycles  
       QC_MAXSCFCY          IQCMSC          10D- 15           cycles  
       QC_RTRUST            IQCRTR          10D-  0           x 10-3  
       QC_SKIPSCF           IQCSKI         OFF         [  0]    ***   
       QC_START             IQCSTA          10D-  1             ***   
       QRHFGUESS            IQGUES         OFF         [  0]    ***   
       QUARTIC              IQUART         OFF         [  0]    ***   
       RAMAN_INT            IRAMIN         OFF         [  0]    ***   
       RAMAN_ORB            IRAMRE         UNRELAXED   [  0]    ***   
       RDO                  IRDOFM         ON          [  1]    ***   
       REDUCE_REPR          REDREP         Ir          [  0]    ***   
       REFERENCE            IREFNC         RHF         [  0]    ***   
       RELATIVIST           IRELAT         OFF         [  0]    ***   
       RELAX_DENS           IRDENS         ON          [  1]    ***   
       RESET_FLAGS          IRESET         OFF         [  0]    ***   
       RESTART_CC           ICCRES         OFF         [  0]    ***   
       ROT_EVEC             ROTVEC              0               ***   
       SAVE_INTS            ISVINT         OFF         [  0]    ***   
       SCALE_ON             ISTCRT              0               ***   
       SCF_CONV             ISCFCV          10D- 10             ***   
       SCF_DAMPING          IDAMP               0             x 10-3  
       SCF_EXPORDE          IRPPOR              6               ***   
       SCF_EXPSTAR          IRPPLS              8               ***   
       SCF_EXTRAPO          IRPP           ON          [  1]    ***   
       SCF_MAXCYC           ISCFCY            150              cycles 
       SCF_NOSTOP           ISCFST         OFF         [  0]    ***   
       SCF_PRINT            ISCFPR              0               ***   
       SCF_PROG             ISCFPR         SCF         [  0]    ***   
       SD_FIELD             IFINSD              0             x 10-6  
       SOPERT               IPERSO         OFF         [  0]    ***   
       SPHERICAL            IDFGHI         ON          [  1]    ***   
       SPINORBIT            ISOCAL         OFF         [  0]    ***   
       SPINROTATIO          ISRCON         OFF         [  0]    ***   
       SPIN_FLIP            ISPFLP         OFF         [  0]    ***   
       SPIN_ORBIT           ISPORB         OFF         [  0]    ***   
       SPIN_SCAL            ISCSMP         OFF         [  0]    ***   
       STEEPSCALE           ISTPSC              1000          x 10-3  
       SUBGROUP             ISUBGP         DEFAULT     [  0]    ***   
       SUBGRPAXIS           ISBXYZ         X           [  0]    ***   
       SYMMETRY             ISYM           ON          [  0]    ***   
       SYM_CHECK            ISYMCK         OVERRIDE    [  1]    ***   
       T3_EXTRAPOL          IT3EXT         OFF         [  0]    ***   
       T4_EXTRAPOL          IT4EXP         OFF         [  0]    ***   
       TAMP_SUM             IEVERY              5               ***   
       TESTSUITE            ITESTS         OFF         [  0]    ***   
       THERMOCH             ITHERM         OFF         [  0]    ***   
       TOL_CHOLESK          ITOLCH          10D-  4             ***   
       TRANGRAD             IRESRM         OFF         [  0]    ***   
       TRANS_INV            ITRAIN         IGNORE      [  1]    ***   
       TREAT_PERT           ITREAT         SIMULTANEOUS[  0]    ***   
       TRIP_ALGORI          ITRALG         NORMAL      [  0]    ***   
       UIJ_THRESHO          IUIJTH              1               ***   
       UNITS                IUNITS         ANGSTROM    [  0]    ***   
       UNOS                 IUNOS          OFF         [  0]    ***   
       UPDATE_HESS          IHUPDT         ON          [  1]    ***   
       VIBPHASE             ISETPH         STANDARD    [  0]    ***   
       VIBRATION            IVIB           ANALYTIC    [  1]    ***   
       VIB_ALGORIT          IGEALG         STANDARD    [  0]    ***   
       VNATORB              IVNORB         OFF         [  0]    ***   
       VTRAN                IVTRAN         FULL/PARTIAL[  0]    ***   
       XFIELD               IXEFLD              0             x 10-6  
       XFORM_TOL            IXFTOL          10D- 11             ***   
       YFIELD               IYEFLD              0             x 10-6  
       ZFIELD               IZEFLD            200             x 10-6  
       ZSCALE_EXP           IZEXPS         OFF         [  0]    ***   
    -------------------------------------------------------------------
   2 entries found in Z-matrix 
   Job Title : Carbon Monoxide DBOC calculation                                                
   There are  1 unique internal coordinates.
   Of these,  0 will be optimized.
   User supplied Z-matrix: 
--------------------------------------------------------------------------------
       SYMBOL    BOND      LENGTH    ANGLE     ANGLE     DIHED     ANGLE
                  TO      (ANGST)    WRT      (DEG)      WRT      (DEG)
--------------------------------------------------------------------------------
        C    
        O          1         r    
                  *Initial values for internal coordinates* 
                      Name             Value
                        r               1.0551724138
--------------------------------------------------------------------------------
  read isotopes from ZMAT file 
   Rotational constants (in cm-1): 
          2.1029323687             2.1029323687
   Rotational constants (in MHz): 
      63044.3352157770         63044.3352157770
********************************************************************************
   The full molecular point group is CXv .
   The largest Abelian subgroup of the full molecular point group is C2v .
   The computational point group is C2v .
********************************************************************************
--------------------------------------------------------------------------------
   Analysis of internal coordinates specified by Z-matrix 
--------------------------------------------------------------------------------
   *The nuclear repulsion energy is   24.072370039215681 a.u.
   *There is   1 degree of freedom within the tot. symm. molecular subspace.
   *Z-matrix requests optimization of   0 coordinates.
   *The optimization is constrained.
   *The following   1 parameters can have non-zero 
    derivatives within the totally symmetric subspace:
             r    [ 1]
   *The following   0 parameters are to be optimized:

   *The following coordinates must be varied in an  unconstrained optimization.
             r    [ 1]
--------------------------------------------------------------------------------


 ----------------------------------------------------------------
         Coordinates used in calculation (QCOMP) 
 ----------------------------------------------------------------
 Z-matrix   Atomic            Coordinates (in bohr)
  Symbol    Number           X              Y              Z
 ----------------------------------------------------------------
     C         6        -0.00000000     0.00000000     1.19637005
     O         8         0.00000000     0.00000000    -0.79761724
 ----------------------------------------------------------------
 
   Interatomic distance matrix (Angstroms) 
 
                 C             O    
                [ 1]        [ 2]
  C    [ 1]     0.00000
  O    [ 2]     1.05517     0.00000
 rotcon2
   Rotational constants (in cm-1): 
          2.1029323687             0.0000000000
   Rotational constants (in MHz): 
      63044.3352157770             0.0000000000
  ECPDATA file not present.   Using default ECPDATA. 
  @GTFLGS-I, Hessian will be transformed to curvilinear coordinates.
  There are  218 basis functions.
 @CHECKOUT-I, Total execution time (CPU/WALL):        0.17/       0.25 seconds.
--executable xjoda finished with status     0 in        0.28 seconds (walltime).
 --invoking executable--
/nfs/workspaces/public/cfour_mpi/bin/xvmol
 SERIAL VERSION OF MOLECULE STARTED
********************************************************************************
                    INPUT FROM MOL FILE
********************************************************************************
INTGRL        1    0    1    0    0    0    0    0    0                         
         *** CFOUR Program System (Release V0.1) ***                            
Carbon Monoxide DBOC calculation                                                
    2    2 X  Y       0.10E-08              0    0                              
   9999.00      3.00                                                            
          6.00000000    1    5    1    1    1    1    1                         
C #1  -0.000000000000000   0.000000000000000   1.196370051226408                
   16    9                                                                      
   33980.0000000000       9.100000000000000E-005 -1.900000000000000E-005        
  0.000000000000000E+000  0.000000000000000E+000  0.000000000000000E+000        
  0.000000000000000E+000  0.000000000000000E+000  0.000000000000000E+000        
  0.000000000000000E+000                                                        
   5089.00000000000       7.040000000000000E-004 -1.510000000000000E-004        
  0.000000000000000E+000  0.000000000000000E+000  0.000000000000000E+000        
  0.000000000000000E+000  0.000000000000000E+000  0.000000000000000E+000        
  0.000000000000000E+000                                                        
   1157.00000000000       3.693000000000000E-003 -7.850000000000000E-004        
  0.000000000000000E+000  0.000000000000000E+000  0.000000000000000E+000        
  0.000000000000000E+000  0.000000000000000E+000  0.000000000000000E+000        
  0.000000000000000E+000                                                        
   326.600000000000       1.536000000000000E-002 -3.324000000000000E-003        
  0.000000000000000E+000  0.000000000000000E+000  0.000000000000000E+000        
  0.000000000000000E+000  0.000000000000000E+000  0.000000000000000E+000        
  0.000000000000000E+000                                                        
   106.100000000000       5.292900000000000E-002 -1.151200000000000E-002        
  0.000000000000000E+000  0.000000000000000E+000  0.000000000000000E+000        
  0.000000000000000E+000  0.000000000000000E+000  0.000000000000000E+000        
  0.000000000000000E+000                                                        
   38.1100000000000       0.147043000000000      -3.416000000000000E-002        
  0.000000000000000E+000  0.000000000000000E+000  0.000000000000000E+000        
  0.000000000000000E+000  0.000000000000000E+000  0.000000000000000E+000        
  0.000000000000000E+000                                                        
   14.7500000000000       0.305631000000000      -7.717300000000001E-002        
  0.000000000000000E+000  0.000000000000000E+000  0.000000000000000E+000        
  0.000000000000000E+000  0.000000000000000E+000  0.000000000000000E+000        
  0.000000000000000E+000                                                        
   6.03500000000000       0.399345000000000      -0.141493000000000             
  0.000000000000000E+000  0.000000000000000E+000  0.000000000000000E+000        
  0.000000000000000E+000  0.000000000000000E+000  0.000000000000000E+000        
  0.000000000000000E+000                                                        
   2.53000000000000       0.217051000000000      -0.118019000000000             
  0.000000000000000E+000  0.000000000000000E+000  0.000000000000000E+000        
  0.000000000000000E+000  0.000000000000000E+000  0.000000000000000E+000        
  0.000000000000000E+000                                                        
  0.735500000000000       1.589400000000000E-002  0.273806000000000             
   1.00000000000000       0.000000000000000E+000  0.000000000000000E+000        
  0.000000000000000E+000  0.000000000000000E+000  0.000000000000000E+000        
  0.000000000000000E+000                                                        
  0.290500000000000      -3.084000000000000E-003  0.586510000000000             
  0.000000000000000E+000   1.00000000000000       0.000000000000000E+000        
  0.000000000000000E+000  0.000000000000000E+000  0.000000000000000E+000        
  0.000000000000000E+000                                                        
  0.111100000000000       9.779999999999999E-004  0.285430000000000             
  0.000000000000000E+000  0.000000000000000E+000   1.00000000000000             
  0.000000000000000E+000  0.000000000000000E+000  0.000000000000000E+000        
  0.000000000000000E+000                                                        
   7.21600000000000       0.000000000000000E+000  0.000000000000000E+000        
  0.000000000000000E+000  0.000000000000000E+000  0.000000000000000E+000        
   1.00000000000000       0.000000000000000E+000  0.000000000000000E+000        
  0.000000000000000E+000                                                        
   19.5700000000000       0.000000000000000E+000  0.000000000000000E+000        
  0.000000000000000E+000  0.000000000000000E+000  0.000000000000000E+000        
  0.000000000000000E+000   1.00000000000000       0.000000000000000E+000        
  0.000000000000000E+000                                                        
   53.0730000000000       0.000000000000000E+000  0.000000000000000E+000        
  0.000000000000000E+000  0.000000000000000E+000  0.000000000000000E+000        
  0.000000000000000E+000  0.000000000000000E+000   1.00000000000000             
  0.000000000000000E+000                                                        
  4.145000000000000E-002  0.000000000000000E+000  0.000000000000000E+000        
  0.000000000000000E+000  0.000000000000000E+000  0.000000000000000E+000        
  0.000000000000000E+000  0.000000000000000E+000  0.000000000000000E+000        
   1.00000000000000                                                             
   10    8                                                                      
   34.5100000000000       5.378000000000000E-003  0.000000000000000E+000        
  0.000000000000000E+000  0.000000000000000E+000  0.000000000000000E+000        
  0.000000000000000E+000  0.000000000000000E+000  0.000000000000000E+000        
   7.91500000000000       3.613200000000000E-002  0.000000000000000E+000        
  0.000000000000000E+000  0.000000000000000E+000  0.000000000000000E+000        
  0.000000000000000E+000  0.000000000000000E+000  0.000000000000000E+000        
   2.36800000000000       0.142493000000000       0.000000000000000E+000        
  0.000000000000000E+000  0.000000000000000E+000  0.000000000000000E+000        
  0.000000000000000E+000  0.000000000000000E+000  0.000000000000000E+000        
  0.813200000000000       0.342150000000000        1.00000000000000             
  0.000000000000000E+000  0.000000000000000E+000  0.000000000000000E+000        
  0.000000000000000E+000  0.000000000000000E+000  0.000000000000000E+000        
  0.289000000000000       0.463864000000000       0.000000000000000E+000        
   1.00000000000000       0.000000000000000E+000  0.000000000000000E+000        
  0.000000000000000E+000  0.000000000000000E+000  0.000000000000000E+000        
  0.100700000000000       0.250028000000000       0.000000000000000E+000        
  0.000000000000000E+000   1.00000000000000       0.000000000000000E+000        
  0.000000000000000E+000  0.000000000000000E+000  0.000000000000000E+000        
   8.18200000000000       0.000000000000000E+000  0.000000000000000E+000        
  0.000000000000000E+000  0.000000000000000E+000   1.00000000000000             
  0.000000000000000E+000  0.000000000000000E+000  0.000000000000000E+000        
   24.1860000000000       0.000000000000000E+000  0.000000000000000E+000        
  0.000000000000000E+000  0.000000000000000E+000  0.000000000000000E+000        
   1.00000000000000       0.000000000000000E+000  0.000000000000000E+000        
   71.4940000000000       0.000000000000000E+000  0.000000000000000E+000        
  0.000000000000000E+000  0.000000000000000E+000  0.000000000000000E+000        
  0.000000000000000E+000   1.00000000000000       0.000000000000000E+000        
  3.218000000000000E-002  0.000000000000000E+000  0.000000000000000E+000        
  0.000000000000000E+000  0.000000000000000E+000  0.000000000000000E+000        
  0.000000000000000E+000  0.000000000000000E+000   1.00000000000000             
    6    6                                                                      
   1.84800000000000        1.00000000000000       0.000000000000000E+000        
  0.000000000000000E+000  0.000000000000000E+000  0.000000000000000E+000        
  0.000000000000000E+000                                                        
  0.649000000000000       0.000000000000000E+000   1.00000000000000             
  0.000000000000000E+000  0.000000000000000E+000  0.000000000000000E+000        
  0.000000000000000E+000                                                        
  0.228000000000000       0.000000000000000E+000  0.000000000000000E+000        
   1.00000000000000       0.000000000000000E+000  0.000000000000000E+000        
  0.000000000000000E+000                                                        
   8.65600000000000       0.000000000000000E+000  0.000000000000000E+000        
  0.000000000000000E+000   1.00000000000000       0.000000000000000E+000        
  0.000000000000000E+000                                                        
   33.2130000000000       0.000000000000000E+000  0.000000000000000E+000        
  0.000000000000000E+000  0.000000000000000E+000   1.00000000000000             
  0.000000000000000E+000                                                        
  7.660000000000000E-002  0.000000000000000E+000  0.000000000000000E+000        
  0.000000000000000E+000  0.000000000000000E+000  0.000000000000000E+000        
   1.00000000000000                                                             
    4    4                                                                      
   1.41900000000000        1.00000000000000       0.000000000000000E+000        
  0.000000000000000E+000  0.000000000000000E+000                                
  0.485000000000000       0.000000000000000E+000   1.00000000000000             
  0.000000000000000E+000  0.000000000000000E+000                                
   24.6940000000000       0.000000000000000E+000  0.000000000000000E+000        
   1.00000000000000       0.000000000000000E+000                                
  0.187000000000000       0.000000000000000E+000  0.000000000000000E+000        
  0.000000000000000E+000   1.00000000000000                                     
    2    2                                                                      
   1.01100000000000        1.00000000000000       0.000000000000000E+000        
  0.424000000000000       0.000000000000000E+000   1.00000000000000             
          8.00000000    1    5    1    1    1    1    1                         
O #2   0.000000000000000   0.000000000000000  -0.797617242995325                
   16    9                                                                      
   61420.0000000000       9.000000000000001E-005 -2.000000000000000E-005        
  0.000000000000000E+000  0.000000000000000E+000  0.000000000000000E+000        
  0.000000000000000E+000  0.000000000000000E+000  0.000000000000000E+000        
  0.000000000000000E+000                                                        
   9199.00000000000       6.980000000000001E-004 -1.590000000000000E-004        
  0.000000000000000E+000  0.000000000000000E+000  0.000000000000000E+000        
  0.000000000000000E+000  0.000000000000000E+000  0.000000000000000E+000        
  0.000000000000000E+000                                                        
   2091.00000000000       3.664000000000000E-003 -8.290000000000000E-004        
  0.000000000000000E+000  0.000000000000000E+000  0.000000000000000E+000        
  0.000000000000000E+000  0.000000000000000E+000  0.000000000000000E+000        
  0.000000000000000E+000                                                        
   590.900000000000       1.521800000000000E-002 -3.508000000000000E-003        
  0.000000000000000E+000  0.000000000000000E+000  0.000000000000000E+000        
  0.000000000000000E+000  0.000000000000000E+000  0.000000000000000E+000        
  0.000000000000000E+000                                                        
   192.300000000000       5.242300000000000E-002 -1.215600000000000E-002        
  0.000000000000000E+000  0.000000000000000E+000  0.000000000000000E+000        
  0.000000000000000E+000  0.000000000000000E+000  0.000000000000000E+000        
  0.000000000000000E+000                                                        
   69.3200000000000       0.145921000000000      -3.626100000000000E-002        
  0.000000000000000E+000  0.000000000000000E+000  0.000000000000000E+000        
  0.000000000000000E+000  0.000000000000000E+000  0.000000000000000E+000        
  0.000000000000000E+000                                                        
   26.9700000000000       0.305258000000000      -8.299200000000000E-002        
  0.000000000000000E+000  0.000000000000000E+000  0.000000000000000E+000        
  0.000000000000000E+000  0.000000000000000E+000  0.000000000000000E+000        
  0.000000000000000E+000                                                        
   11.1000000000000       0.398508000000000      -0.152090000000000             
  0.000000000000000E+000  0.000000000000000E+000  0.000000000000000E+000        
  0.000000000000000E+000  0.000000000000000E+000  0.000000000000000E+000        
  0.000000000000000E+000                                                        
   4.68200000000000       0.216980000000000      -0.115331000000000             
  0.000000000000000E+000  0.000000000000000E+000  0.000000000000000E+000        
  0.000000000000000E+000  0.000000000000000E+000  0.000000000000000E+000        
  0.000000000000000E+000                                                        
   1.42800000000000       1.759400000000000E-002  0.288979000000000             
   1.00000000000000       0.000000000000000E+000  0.000000000000000E+000        
  0.000000000000000E+000  0.000000000000000E+000  0.000000000000000E+000        
  0.000000000000000E+000                                                        
  0.554700000000000      -2.502000000000000E-003  0.586128000000000             
  0.000000000000000E+000   1.00000000000000       0.000000000000000E+000        
  0.000000000000000E+000  0.000000000000000E+000  0.000000000000000E+000        
  0.000000000000000E+000                                                        
  0.206700000000000       9.540000000000000E-004  0.277624000000000             
  0.000000000000000E+000  0.000000000000000E+000   1.00000000000000             
  0.000000000000000E+000  0.000000000000000E+000  0.000000000000000E+000        
  0.000000000000000E+000                                                        
   12.9740000000000       0.000000000000000E+000  0.000000000000000E+000        
  0.000000000000000E+000  0.000000000000000E+000  0.000000000000000E+000        
   1.00000000000000       0.000000000000000E+000  0.000000000000000E+000        
  0.000000000000000E+000                                                        
   34.9000000000000       0.000000000000000E+000  0.000000000000000E+000        
  0.000000000000000E+000  0.000000000000000E+000  0.000000000000000E+000        
  0.000000000000000E+000   1.00000000000000       0.000000000000000E+000        
  0.000000000000000E+000                                                        
   93.8810000000000       0.000000000000000E+000  0.000000000000000E+000        
  0.000000000000000E+000  0.000000000000000E+000  0.000000000000000E+000        
  0.000000000000000E+000  0.000000000000000E+000   1.00000000000000             
  0.000000000000000E+000                                                        
  6.959000000000000E-002  0.000000000000000E+000  0.000000000000000E+000        
  0.000000000000000E+000  0.000000000000000E+000  0.000000000000000E+000        
  0.000000000000000E+000  0.000000000000000E+000  0.000000000000000E+000        
   1.00000000000000                                                             
   10    8                                                                      
   63.4200000000000       6.044000000000000E-003  0.000000000000000E+000        
  0.000000000000000E+000  0.000000000000000E+000  0.000000000000000E+000        
  0.000000000000000E+000  0.000000000000000E+000  0.000000000000000E+000        
   14.6600000000000       4.179900000000000E-002  0.000000000000000E+000        
  0.000000000000000E+000  0.000000000000000E+000  0.000000000000000E+000        
  0.000000000000000E+000  0.000000000000000E+000  0.000000000000000E+000        
   4.45900000000000       0.161143000000000       0.000000000000000E+000        
  0.000000000000000E+000  0.000000000000000E+000  0.000000000000000E+000        
  0.000000000000000E+000  0.000000000000000E+000  0.000000000000000E+000        
   1.53100000000000       0.356731000000000        1.00000000000000             
  0.000000000000000E+000  0.000000000000000E+000  0.000000000000000E+000        
  0.000000000000000E+000  0.000000000000000E+000  0.000000000000000E+000        
  0.530200000000000       0.448309000000000       0.000000000000000E+000        
   1.00000000000000       0.000000000000000E+000  0.000000000000000E+000        
  0.000000000000000E+000  0.000000000000000E+000  0.000000000000000E+000        
  0.175000000000000       0.244940000000000       0.000000000000000E+000        
  0.000000000000000E+000   1.00000000000000       0.000000000000000E+000        
  0.000000000000000E+000  0.000000000000000E+000  0.000000000000000E+000        
   14.4750000000000       0.000000000000000E+000  0.000000000000000E+000        
  0.000000000000000E+000  0.000000000000000E+000   1.00000000000000             
  0.000000000000000E+000  0.000000000000000E+000  0.000000000000000E+000        
   42.7300000000000       0.000000000000000E+000  0.000000000000000E+000        
  0.000000000000000E+000  0.000000000000000E+000  0.000000000000000E+000        
   1.00000000000000       0.000000000000000E+000  0.000000000000000E+000        
   126.140000000000       0.000000000000000E+000  0.000000000000000E+000        
  0.000000000000000E+000  0.000000000000000E+000  0.000000000000000E+000        
  0.000000000000000E+000   1.00000000000000       0.000000000000000E+000        
  5.348000000000000E-002  0.000000000000000E+000  0.000000000000000E+000        
  0.000000000000000E+000  0.000000000000000E+000  0.000000000000000E+000        
  0.000000000000000E+000  0.000000000000000E+000   1.00000000000000             
    6    6                                                                      
   3.77500000000000        1.00000000000000       0.000000000000000E+000        
  0.000000000000000E+000  0.000000000000000E+000  0.000000000000000E+000        
  0.000000000000000E+000                                                        
   1.30000000000000       0.000000000000000E+000   1.00000000000000             
  0.000000000000000E+000  0.000000000000000E+000  0.000000000000000E+000        
  0.000000000000000E+000                                                        
  0.444000000000000       0.000000000000000E+000  0.000000000000000E+000        
   1.00000000000000       0.000000000000000E+000  0.000000000000000E+000        
  0.000000000000000E+000                                                        
   14.9270000000000       0.000000000000000E+000  0.000000000000000E+000        
  0.000000000000000E+000   1.00000000000000       0.000000000000000E+000        
  0.000000000000000E+000                                                        
   57.5440000000000       0.000000000000000E+000  0.000000000000000E+000        
  0.000000000000000E+000  0.000000000000000E+000   1.00000000000000             
  0.000000000000000E+000                                                        
  0.154000000000000       0.000000000000000E+000  0.000000000000000E+000        
  0.000000000000000E+000  0.000000000000000E+000  0.000000000000000E+000        
   1.00000000000000                                                             
    4    4                                                                      
   2.66600000000000        1.00000000000000       0.000000000000000E+000        
  0.000000000000000E+000  0.000000000000000E+000                                
  0.859000000000000       0.000000000000000E+000   1.00000000000000             
  0.000000000000000E+000  0.000000000000000E+000                                
   26.4830000000000       0.000000000000000E+000  0.000000000000000E+000        
   1.00000000000000       0.000000000000000E+000                                
  0.324000000000000       0.000000000000000E+000  0.000000000000000E+000        
  0.000000000000000E+000   1.00000000000000                                     
    2    2                                                                      
   1.84600000000000        1.00000000000000       0.000000000000000E+000        
  0.714000000000000       0.000000000000000E+000   1.00000000000000             
FINISH                                                                          
 
********************************************************************************
 ONE- AND TWO-ELECTRON INTEGRALS OVER SYMMETRY-ADAPTED AOS ARE CALCULATED.

  SPHERICAL HARMONICS ARE USED.
  
  INTEGRALS LESS THAN  0.10E-13 ARE NEGLECTED.

  NUCLEAR REPULSION ENERGY :   24.0723700392 A.U.
  @MOLECU-I, ONE ELECTRON INTEGRALS (CPU/WALL):        0.06/       0.07 SECONDS.
  @TWOEL-I,    4632565 INTEGRALS OF SYMMETRY TYPE  I I I I
  @TWOEL-I,   19851637 INTEGRALS OF SYMMETRY TYPE  I J I J
  @TWOEL-I,   10465227 INTEGRALS OF SYMMETRY TYPE  I I J J
  @TWOEL-I,   14678484 INTEGRALS OF SYMMETRY TYPE  I J K L
  @TWOEL-I, TOTAL NUMBER OF 2-E INTEGRALS   49627913.
  @MOLECU-I, TWO ELECTRON INTEGRALS (CPU/WALL):      257.24/      34.81 SECONDS.
 @CHECKOUT-I, Total execution time (CPU/WALL):      257.31/      34.92 seconds.

Running with 14 threads/proc

--executable xvmol finished with status     0 in       34.96 seconds (walltime).
 --invoking executable--
/nfs/workspaces/public/cfour_mpi/bin/xvmol2ja
 @GETMEM-I,  Allocated    3814 MB of main memory.
 @CHECKOUT-I, Total execution time (CPU/WALL):        0.31/       0.14 seconds.
--executable xvmol2ja finished with status     0 in        0.18 seconds (walltime).
 --invoking executable--
/nfs/workspaces/public/cfour_mpi/bin/xvprop
 @GETMEM-I,  Allocated    3814 MB of main memory.
   Property integrals will be calculated.
    --------------------------------------------------------------
                                   Property evaluated at 
    Property type                X             Y             Z
    --------------------------------------------------------------
    Dipole moment               ----          ----          ----  
    Quadrupole moment           ----          ----          ----  
    Octopole moment             ----          ----          ----  
    Relativisitic corr.         ----          ----          ----  
    Second moment            0.0000000     0.0000000     0.0000000
    Electron density         0.0000000     0.0000000     1.1963701
    Electron density         0.0000000     0.0000000    -0.7976172
    Field gradient           0.0000000     0.0000000     1.1963701
    Field gradient           0.0000000     0.0000000    -0.7976172
    Potential                0.0000000     0.0000000     1.1963701
    Potential                0.0000000     0.0000000    -0.7976172
    --------------------------------------------------------------
 @CHECKOUT-I, Total execution time (CPU/WALL):        1.41/       1.45 seconds.
--executable xvprop finished with status     0 in        1.48 seconds (walltime).
 --invoking executable--
/nfs/workspaces/public/cfour_mpi/bin/xvscf
  There are  218 functions in the AO basis.

  There are 4 irreducible representations.

       Irrep        # of functions
         1                 86
         2                 52
         3                 52
         4                 28


  Parameters for SCF calculation: 
        SCF reference function:  RHF  
  Maximum number of iterations:  150
     Full symmetry point group: CXv 
     Computational point group: C2v 
        Initial density matrix: MOREAD                 
     SCF convergence tolerance: 10**(-10)
  DIIS convergence acceleration:  ON
          Latest start for DIIS:   8
                     DIIS order:   6

  Memory information:    2523578 words required.
  Fock matrices are constructed from AO integral file.
 @GETMEM-I,  Allocated      19 MB of main memory.
  Initialization and symmetry analysis required      0.002 seconds.

  Adding electric field perturbation to one-electron Hamiltonian.
  Field direction     : Z
  Field strength      :  0.0002000 a.u.

  @INITGES-I, Occupancies from core Hamiltonian:

          Alpha population by irrep:   5    1    1    0
           Beta population by irrep:   5    1    1    0


 total no. of electrons in initial guess :  0.000000000000000E+000
  --------------------------------------------------------------------
  Iteration         Total Energy            Largest Density Difference
  --------------------------------------------------------------------
       0            24.072210582743413              0.0000000000D+00
   current occupation vector 
     5  1  1  0
     5  1  1  0
       1           -91.158028257733918              0.1925379046D+02
   current occupation vector 
     5  1  1  0
     5  1  1  0
       2           -94.506128006632494              0.6599778585D+02
   current occupation vector 
     5  1  1  0
     5  1  1  0
       3          -103.190093852103402              0.6597727647D+02
   current occupation vector 
     5  1  1  0
     5  1  1  0
       4          -100.612097844866511              0.1012816528D+02
   current occupation vector 
     5  1  1  0
     5  1  1  0
       5          -104.578268053147198              0.1013986550D+02
   current occupation vector 
     5  1  1  0
     5  1  1  0
       6          -101.823157776436858              0.5724872569D+01
   current occupation vector 
     5  1  1  0
     5  1  1  0
       7          -103.888158950486712              0.5383526142D+01
   current occupation vector 
     5  1  1  0
     5  1  1  0
       8          -101.181098342141027              0.5384683457D+01
   current occupation vector 
     5  1  1  0
     5  1  1  0
       9          -111.286551487074959              0.3801349711D+01
   current occupation vector 
     5  1  1  0
     5  1  1  0
      10          -112.496742608319991              0.9022369465D+00
   current occupation vector 
     5  1  1  0
     5  1  1  0
      11          -112.779533388643173              0.4334481804D+00
   current occupation vector 
     5  1  1  0
     5  1  1  0
      12          -112.784224554413314              0.6574039349D-01
   current occupation vector 
     5  1  1  0
     5  1  1  0
      13          -112.784402721267313              0.1761224391D-01
   current occupation vector 
     5  1  1  0
     5  1  1  0
      14          -112.784426189600978              0.8001894598D-02
   current occupation vector 
     5  1  1  0
     5  1  1  0
      15          -112.784426470348578              0.8743758552D-03
   current occupation vector 
     5  1  1  0
     5  1  1  0
      16          -112.784426474525972              0.6657045556D-04
   current occupation vector 
     5  1  1  0
     5  1  1  0
      17          -112.784426474640256              0.1958896934D-04
   current occupation vector 
     5  1  1  0
     5  1  1  0
      18          -112.784426474644263              0.1625745171D-05
   current occupation vector 
     5  1  1  0
     5  1  1  0
      19          -112.784426474643752              0.7222550082D-06
   current occupation vector 
     5  1  1  0
     5  1  1  0
      20          -112.784426474642956              0.9129114420D-07
   current occupation vector 
     5  1  1  0
     5  1  1  0
      21          -112.784426474645372              0.3028262463D-07
   current occupation vector 
     5  1  1  0
     5  1  1  0
      22          -112.784426474644832              0.1032500263D-07
   current occupation vector 
     5  1  1  0
     5  1  1  0
      23          -112.784426474644093              0.6519684792D-09
   current occupation vector 
     5  1  1  0
     5  1  1  0
      24          -112.784426474644775              0.2234351038D-09
   current occupation vector 
     5  1  1  0
     5  1  1  0

  SCF has converged.

 Density matrix saved to file den.dat
 total electron number:   14.0000000000000     
     E(SCF)=      -112.784426474643269              0.4361300210D-10

  Eigenvector printing suppressed.

 @PUTMOS-I, Writing converged MOs to NEWMOS. 
 @PUTMOS-I, Symmetry   1 Full Blocks 21 Partial Blocksize   2
 @PUTMOS-I, Symmetry   2 Full Blocks 13 Partial Blocksize   0
 @PUTMOS-I, Symmetry   3 Full Blocks 13 Partial Blocksize   0
 @PUTMOS-I, Symmetry   4 Full Blocks  7 Partial Blocksize   0
 @PUTFOCK-I, Writing converged Fock matrix to NEWFOCK. 
 @PUTFOCK-I, Symmetry   1 Full Blocks 21 Partial Blocksize   2
 @PUTFOCK-I, Symmetry   2 Full Blocks 13 Partial Blocksize   0
 @PUTFOCK-I, Symmetry   3 Full Blocks 13 Partial Blocksize   0
 @PUTFOCK-I, Symmetry   4 Full Blocks  7 Partial Blocksize   0


 
  ORBITAL EIGENVALUES (ALPHA)  (1H = 27.2113834 eV)

       MO #        E(hartree)               E(eV)           FULLSYM    COMPSYM
       ----   --------------------   --------------------   -------   ---------
    1     1         -20.6611283715        -562.2178855946     SG+        A1 (1)
    2     2         -11.3266257667        -308.2131563660     SG+        A1 (1)
    3     3          -1.5734097003         -42.8146545994     SG+        A1 (1)
    4     4          -0.8112205674         -22.0744338818     SG+        A1 (1)
    5    87          -0.6742330543         -18.3468141408      PI        B1 (2)
    6   139          -0.6742330543         -18.3468141408      PI        B2 (3)
    7     5          -0.5450698823         -14.8321055483     SG+        A1 (1)
  +++++++++++++++++++++++++++++++++++++++++++++++++++++++++++++++++++++++++++++
    8     6           0.0583025621           1.5864933695     SG+        A1 (1)
    9   140           0.0647913930           1.7630634366      PI        B2 (3)
   10    88           0.0647913930           1.7630634366      PI        B1 (2)
   11     7           0.0769118940           2.0928790362     SG+        A1 (1)
   12   141           0.1524820942           4.1492487272      PI        B2 (3)
   13    89           0.1524820942           4.1492487272      PI        B1 (2)
   14     8           0.1558451211           4.2407613410     SG+        A1 (1)
   15   142           0.1758118402           4.7840833908      PI        B2 (3)
   16    90           0.1758118402           4.7840833908      PI        B1 (2)
   17     9           0.2273303127           6.1859722962     SG+        A1 (1)
   18    10           0.2281528409           6.2083544285      DE        A1 (1)
   19   191           0.2281528409           6.2083544285      DE        A2 (4)
   20    11           0.3023071873           8.2261967772     SG+        A1 (1)
   21   143           0.3297288154           8.9723772129      PI        B2 (3)
   22    91           0.3297288154           8.9723772129      PI        B1 (2)
   23    12           0.3948723465          10.7450228138     SG+        A1 (1)
   24   144           0.3981384572          10.8338982043      PI        B2 (3)
   25    92           0.3981384572          10.8338982043      PI        B1 (2)
   26    13           0.5077955320          13.8178189104     SG+        A1 (1)
   27   192           0.5292234592          14.4009024533      DE        A2 (4)
   28    14           0.5292234592          14.4009024533      DE        A1 (1)
   29   145           0.6203788769          16.8813674721      PI        B2 (3)
   30    93           0.6203788769          16.8813674721      PI        B1 (2)
   31    15           0.6586445893          17.9226304451     SG+        A1 (1)
   32   146           0.7501135717          20.4116279941      PH        B2 (3)
   33    94           0.7501135717          20.4116279941      PH        B1 (2)
   34    16           0.7707100671          20.9720871248      DE        A1 (1)
   35   193           0.7707100671          20.9720871248      DE        A2 (4)
   36    17           0.7833981873          21.3173484295     SG+        A1 (1)
   37   147           0.8332167746          22.6729811082      PI        B2 (3)
   38    95           0.8332167746          22.6729811083      PI        B1 (2)
   39    18           0.8754795572          23.8230098900     SG+        A1 (1)
   40   148           0.8759727906          23.8364314523      PI        B2 (3)
   41    96           0.8759727906          23.8364314524      PI        B1 (2)
   42   194           0.8967312100          24.4012967615      DE        A2 (4)
   43    19           0.8967312100          24.4012967615      DE        A1 (1)
   44    20           0.9407188911          25.5982624177     SG+        A1 (1)
   45   149           1.0954357142          29.8083212081      PI        B2 (3)
   46    97           1.0954357142          29.8083212081      PI        B1 (2)
   47    21           1.2613993603          34.3244216140     SG+        A1 (1)
   48   150           1.4526577727          39.5288276015      PH        B2 (3)
   49    98           1.4526577727          39.5288276015      PH        B1 (2)
   50   195           1.5070462987          41.0088146360      DE        A2 (4)
   51    22           1.5070462987          41.0088146360      DE        A1 (1)
   52    23           1.5109626811          41.1153848175     SG+        A1 (1)
   53   151           1.5415541635          41.9478213760      PI        B2 (3)
   54    99           1.5415541635          41.9478213760      PI        B1 (2)
   55    24           1.6606166929          45.1876775096     SG+        A1 (1)
   56    25           1.7543799692          47.7391059713     SG+        A1 (1)
   57   196           1.7753384431          48.3094150404      DE        A2 (4)
   58    26           1.7753384431          48.3094150405      DE        A1 (1)
   59   152           1.8575615262          50.5468188789      PI        B2 (3)
   60   100           1.8575615262          50.5468188789      PI        B1 (2)
   61   153           1.9474724856          52.9934204669      PI        B2 (3)
   62   101           1.9474724856          52.9934204671      PI        B1 (2)
   63   197           2.1104688532          57.4287771176      PI        A2 (4)
   64    27           2.1104688532          57.4287771176      PI        A1 (1)
   65    28           2.1806146861          59.3375422710     SG+        A1 (1)
   66    29           2.2124783347          60.2045962308      DE        A1 (1)
   67   198           2.2124783347          60.2045962308      DE        A2 (4)
   68   102           2.2578987134          61.4405475676      PH        B1 (2)
   69   154           2.2578987134          61.4405475676      PH        B2 (3)
   70    30           2.3250874683          63.2688465371     SG+        A1 (1)
   71   155           2.3395836841          63.6633086254      PI        B2 (3)
   72   103           2.3395836841          63.6633086254      PI        B1 (2)
   73   199           2.3756802641          64.6455465019      DE        A2 (4)
   74    31           2.3756802641          64.6455465019      DE        A1 (1)
   75   104           2.3910611850          65.0640826373      PH        B1 (2)
   76   156           2.3910611850          65.0640826373      PH        B2 (3)
   77    32           2.5150077714          68.4368407225     SG+        A1 (1)
   78   105           2.6082984039          70.9754078910      PI        B1 (2)
   79   157           2.6082984039          70.9754078910      PI        B2 (3)
   80   106           2.9088595545          79.1540925932      PI        B1 (2)
   81   158           2.9088595545          79.1540925932      PI        B2 (3)
   82    33           3.0420449916          82.7782525861     SG+        A1 (1)
   83   200           3.0695648918          83.5271071426      DE        A2 (4)
   84    34           3.0695648918          83.5271071426      DE        A1 (1)
   85    35           3.4409391393          93.6327141751     SG+        A1 (1)
   86    36           3.7396767670         101.7617782992      PI        A1 (1)
   87   201           3.7396767670         101.7617782992      PI        A2 (4)
   88   159           3.7626025414         102.3856203364      PI        B2 (3)
   89   107           3.7626025414         102.3856203366      PI        B1 (2)
   90    37           3.9717861151         108.0777947608     SG+        A1 (1)
   91   108           4.0750996572         110.8890991658      PH        B1 (2)
   92   160           4.0750996572         110.8890991658      PH        B2 (3)
   93   202           4.1759690556         113.6338950380      DE        A2 (4)
   94    38           4.1759690556         113.6338950380      DE        A1 (1)
   95   161           4.2103591945         114.5696982933      PI        B2 (3)
   96   109           4.2103591945         114.5696982933      PI        B1 (2)
   97    39           4.2964690735         116.9128672259     SG+        A1 (1)
   98   110           4.3682151153         118.8651762764      PH        B1 (2)
   99   162           4.3682151153         118.8651762764      PH        B2 (3)
  100    40           4.4141142044         120.1141539874      DE        A1 (1)
  101   203           4.4141142044         120.1141539874      DE        A2 (4)
  102    41           4.6460989088         126.4267787215     SG+        A1 (1)
  103   163           4.7858273453         130.2289827790      PI        B2 (3)
  104   111           4.7858273453         130.2289827791      PI        B1 (2)
  105    42           4.9658170158         135.1267507123     SG+        A1 (1)
  106    43           5.1858734415         141.1147904812      DE        A1 (1)
  107   204           5.1858734415         141.1147904815      DE        A2 (4)
  108   164           5.2334944034         142.4106227326      PI        B2 (3)
  109   112           5.2334944034         142.4106227326      PI        B1 (2)
  110   113           5.8987781222         160.5139130745      PI        B1 (2)
  111   165           5.8987781222         160.5139130745      PI        B2 (3)
  112    44           5.9123823802         160.8841037559      PI        A1 (1)
  113   205           5.9123823802         160.8841037559      PI        A2 (4)
  114    45           6.1021426485         166.0477431687     SG+        A1 (1)
  115   166           6.2136612049         169.0823173633      PH        B2 (3)
  116   114           6.2136612049         169.0823173633      PH        B1 (2)
  117    46           6.2165800640         169.1617435583     SG+        A1 (1)
  118   206           6.3237394941         172.0776998949      DE        A2 (4)
  119    47           6.3237394941         172.0776998949      DE        A1 (1)
  120   167           6.3519152320         172.8444007033      PI        B2 (3)
  121   115           6.3519152320         172.8444007033      PI        B1 (2)
  122   168           6.4617248286         175.8324717368      PH        B2 (3)
  123   116           6.4617248286         175.8324717368      PH        B1 (2)
  124    48           6.6432158180         180.7710926327      DE        A1 (1)
  125   207           6.6432158180         180.7710926328      DE        A2 (4)
  126    49           7.1323173099         194.0802208490     SG+        A1 (1)
  127    50           7.6514347458         208.2061244282      DE        A1 (1)
  128   208           7.6514347458         208.2061244286      DE        A2 (4)
  129   169           7.6808880926         209.0075907391      PI        B2 (3)
  130   117           7.6808880926         209.0075907391      PI        B1 (2)
  131    51           8.0081650838         217.9132504267     SG+        A1 (1)
  132    52           8.5233391485         231.9318494175     SG+        A1 (1)
  133   170           8.7127596385         237.0862429963      PI        B2 (3)
  134   118           8.7127596385         237.0862429963      PI        B1 (2)
  135   119          10.1259409946         275.5408626906      PI        B1 (2)
  136   171          10.1259409946         275.5408626907      PI        B2 (3)
  137    53          10.1897430375         277.2770045406     SG+        A1 (1)
  138   209          10.6006336061         288.4579053372      PI        A2 (4)
  139    54          10.6006336061         288.4579053372      PI        A1 (1)
  140   120          10.9418472915         297.7428017528      PH        B1 (2)
  141   172          10.9418472915         297.7428017528      PH        B2 (3)
  142   210          11.2166707673         305.2211287196      DE        A2 (4)
  143    55          11.2166707673         305.2211287196      DE        A1 (1)
  144    56          11.2542074887         306.2425548378     SG+        A1 (1)
  145   173          11.4074264833         310.4118556443      PI        B2 (3)
  146   121          11.4074264833         310.4118556443      PI        B1 (2)
  147   174          11.8580783692         322.6747168913      PH        B2 (3)
  148   122          11.8580783692         322.6747168913      PH        B1 (2)
  149    57          12.0807269124         328.7332917649     SG+        A1 (1)
  150    58          12.3685890810         336.5664195991      DE        A1 (1)
  151   211          12.3685890810         336.5664195997      DE        A2 (4)
  152   123          12.8245498703         348.9737434521      PI        B1 (2)
  153   175          12.8245498703         348.9737434521      PI        B2 (3)
  154    59          12.9496259597         352.3772368751      DE        A1 (1)
  155   212          12.9496259597         352.3772368751      DE        A2 (4)
  156    60          13.6567334344         371.6186094738     SG+        A1 (1)
  157   176          14.6041341489         397.3986935518      PI        B2 (3)
  158   124          14.6041341489         397.3986935519      PI        B1 (2)
  159    61          15.8244944334         430.6063851397     SG+        A1 (1)
  160    62          18.2419017771         496.3873832023     SG+        A1 (1)
  161   125          19.5460848533         531.8760089118      PI        B1 (2)
  162   177          19.5460848533         531.8760089122      PI        B2 (3)
  163    63          20.9944720832         571.2886291356     SG+        A1 (1)
  164    64          26.6235197407         724.4628031211      DE        A1 (1)
  165   213          26.6235197407         724.4628031213      DE        A2 (4)
  166   178          27.2641165885         741.8943295507      PI        B2 (3)
  167   126          27.2641165885         741.8943295508      PI        B1 (2)
  168    65          28.5485575642         776.8457453972     SG+        A1 (1)
  169   127          33.8464774745         921.0094752973      PI        B1 (2)
  170   179          33.8464774745         921.0094752975      PI        B2 (3)
  171    66          35.3265330923         961.2838361682     SG+        A1 (1)
  172    67          37.2006008235        1012.2798117196     SG+        A1 (1)
  173    68          47.1510187672        1283.0444493739      DE        A1 (1)
  174   214          47.1510187672        1283.0444493739      DE        A2 (4)
  175   180          47.9377785089        1304.4532703488      PI        B2 (3)
  176   128          47.9377785089        1304.4532703488      PI        B1 (2)
  177    69          48.7247417059        1325.8676276262     SG+        A1 (1)
  178    70          64.4328520347        1753.3070402721     SG+        A1 (1)
  179   129          66.9771060221        1822.5397109908      PI        B1 (2)
  180   181          66.9771060222        1822.5397109912      PI        B2 (3)
  181    71          68.0556402994        1851.8881207198     SG+        A1 (1)
  182   182          98.7146800616        2686.1630063650      PH        B2 (3)
  183   130          98.7146800616        2686.1630063650      PH        B1 (2)
  184   215          98.7460455591        2687.0165049424      DE        A2 (4)
  185    72          98.7460455591        2687.0165049424      DE        A1 (1)
  186   183          98.8219413263        2689.0817337631      PI        B2 (3)
  187   131          98.8219413263        2689.0817337631      PI        B1 (2)
  188    73          98.8395370059        2689.5605365463     SG+        A1 (1)
  189   184         103.2892464086        2810.6432851203      PH        B2 (3)
  190   132         103.2892464086        2810.6432851203      PH        B1 (2)
  191   216         103.3498014515        2812.2910716112      DE        A2 (4)
  192    74         103.3498014515        2812.2910716118      DE        A1 (1)
  193   185         103.3860862962        2813.2784324306      PI        B2 (3)
  194   133         103.3860862962        2813.2784324306      PI        B1 (2)
  195    75         103.4682427559        2815.5140233550     SG+        A1 (1)
  196    76         115.2550416018        3136.2491258100      DE        A1 (1)
  197   217         115.2550416018        3136.2491258100      DE        A2 (4)
  198   186         115.5658974454        3144.7079433513      PI        B2 (3)
  199   134         115.5658974454        3144.7079433513      PI        B1 (2)
  200    77         116.1606653265        3160.8924001996     SG+        A1 (1)
  201   135         117.0879976817        3186.1263964559      PI        B1 (2)
  202   187         117.0879976817        3186.1263964561      PI        B2 (3)
  203    78         118.4860283374        3224.1687446312     SG+        A1 (1)
  204    79         123.1294419744        3350.5224533944     SG+        A1 (1)
  205    80         198.6002169788        5404.1866475338      DE        A1 (1)
  206   218         198.6002169788        5404.1866475338      DE        A2 (4)
  207   136         199.0306888243        5415.9003819651      PI        B1 (2)
  208   188         199.0306888243        5415.9003819654      PI        B2 (3)
  209    81         199.4423749547        5427.1029310987     SG+        A1 (1)
  210    82         216.8909372964        5901.9024507582     SG+        A1 (1)
  211   137         225.3785942506        6132.8633383068      PI        B1 (2)
  212   189         225.3785942506        6132.8633383073      PI        B2 (3)
  213    83         226.2518531118        6156.6259199855     SG+        A1 (1)
  214   138         395.5397909149       10763.1849005405      PI        B1 (2)
  215   190         395.5397909149       10763.1849005414      PI        B2 (3)
  216    84         396.6164321016       10792.4817966576     SG+        A1 (1)
  217    85         509.6000820171       13866.9232124387     SG+        A1 (1)
  218    86         895.7316845451       24374.0982916857     SG+        A1 (1)


  VSCF finished.

 @CHECKOUT-I, Total execution time (CPU/WALL):       45.75/      12.15 seconds.
--executable xvscf finished with status     0 in       12.20 seconds (walltime).
 --invoking executable--
/nfs/workspaces/public/cfour_mpi/bin/xvtran
 @GETMEM-I,  Allocated    3814 MB of main memory.
  Full RHF integral transformation
  Transformation of IIII integrals :
  1 pass through the AO integral file was required.
     4632565 AO integrals were read.
     8852920 MO integrals were written to HF2.
  Transformation of IIJJ integrals :
  1 pass through the AO integral file was required.
    10465227 AO integrals were read.
    14668701 MO integrals were written to HF2.
  Transformation of IJIJ integrals :
  1 pass through the AO integral file was required.
    19851637 AO integrals were read.
    27604515 MO integrals were written to HF2.
  Transformation of IJKL integrals :
  1 pass through the AO integral file was required.
    14678484 AO integrals were read.
    18626103 MO integrals were written to HF2.
  Summary of active molecular orbitals: 
------------------------------------------------------------------------
 
  Index      Eigenvalue    Symmetry    Index      Eigenvalue    Symmetry
------------------------------------------------------------------------
     1       -20.6611284        1       110         4.2103592        2
     2       -11.3266258        1       111         4.3682151        2
     3        -1.5734097        1       112         4.7858273        2
     4        -0.8112206        1       113         5.2334944        2
     5        -0.5450699        1       114         5.8987781        2
     6        -0.6742331        2       115         6.2136612        2
     7        -0.6742331        3       116         6.3519152        2
     8         0.0583026        1       117         6.4617248        2
     9         0.0769119        1       118         7.6808881        2
    10         0.1558451        1       119         8.7127596        2
    11         0.2273303        1       120        10.1259410        2
    12         0.2281528        1       121        10.9418473        2
    13         0.3023072        1       122        11.4074265        2
    14         0.3948723        1       123        11.8580784        2
    15         0.5077955        1       124        12.8245499        2
    16         0.5292235        1       125        14.6041341        2
    17         0.6586446        1       126        19.5460849        2
    18         0.7707101        1       127        27.2641166        2
    19         0.7833982        1       128        33.8464775        2
    20         0.8754796        1       129        47.9377785        2
    21         0.8967312        1       130        66.9771060        2
    22         0.9407189        1       131        98.7146801        2
    23         1.2613994        1       132        98.8219413        2
    24         1.5070463        1       133       103.2892464        2
    25         1.5109627        1       134       103.3860863        2
    26         1.6606167        1       135       115.5658974        2
    27         1.7543800        1       136       117.0879977        2
    28         1.7753384        1       137       199.0306888        2
    29         2.1104689        1       138       225.3785943        2
    30         2.1806147        1       139       395.5397909        2
    31         2.2124783        1       140         0.0647914        3
    32         2.3250875        1       141         0.1524821        3
    33         2.3756803        1       142         0.1758118        3
    34         2.5150078        1       143         0.3297288        3
    35         3.0420450        1       144         0.3981385        3
    36         3.0695649        1       145         0.6203789        3
    37         3.4409391        1       146         0.7501136        3
    38         3.7396768        1       147         0.8332168        3
    39         3.9717861        1       148         0.8759728        3
    40         4.1759691        1       149         1.0954357        3
    41         4.2964691        1       150         1.4526578        3
    42         4.4141142        1       151         1.5415542        3
    43         4.6460989        1       152         1.8575615        3
    44         4.9658170        1       153         1.9474725        3
    45         5.1858734        1       154         2.2578987        3
    46         5.9123824        1       155         2.3395837        3
    47         6.1021426        1       156         2.3910612        3
    48         6.2165801        1       157         2.6082984        3
    49         6.3237395        1       158         2.9088596        3
    50         6.6432158        1       159         3.7626025        3
    51         7.1323173        1       160         4.0750997        3
    52         7.6514347        1       161         4.2103592        3
    53         8.0081651        1       162         4.3682151        3
    54         8.5233391        1       163         4.7858273        3
    55        10.1897430        1       164         5.2334944        3
    56        10.6006336        1       165         5.8987781        3
    57        11.2166708        1       166         6.2136612        3
    58        11.2542075        1       167         6.3519152        3
    59        12.0807269        1       168         6.4617248        3
    60        12.3685891        1       169         7.6808881        3
    61        12.9496260        1       170         8.7127596        3
    62        13.6567334        1       171        10.1259410        3
    63        15.8244944        1       172        10.9418473        3
    64        18.2419018        1       173        11.4074265        3
    65        20.9944721        1       174        11.8580784        3
    66        26.6235197        1       175        12.8245499        3
    67        28.5485576        1       176        14.6041341        3
    68        35.3265331        1       177        19.5460849        3
    69        37.2006008        1       178        27.2641166        3
    70        47.1510188        1       179        33.8464775        3
    71        48.7247417        1       180        47.9377785        3
    72        64.4328520        1       181        66.9771060        3
    73        68.0556403        1       182        98.7146801        3
    74        98.7460456        1       183        98.8219413        3
    75        98.8395370        1       184       103.2892464        3
    76       103.3498015        1       185       103.3860863        3
    77       103.4682428        1       186       115.5658974        3
    78       115.2550416        1       187       117.0879977        3
    79       116.1606653        1       188       199.0306888        3
    80       118.4860283        1       189       225.3785943        3
    81       123.1294420        1       190       395.5397909        3
    82       198.6002170        1       191         0.2281528        4
    83       199.4423750        1       192         0.5292235        4
    84       216.8909373        1       193         0.7707101        4
    85       226.2518531        1       194         0.8967312        4
    86       396.6164321        1       195         1.5070463        4
    87       509.6000820        1       196         1.7753384        4
    88       895.7316845        1       197         2.1104689        4
    89         0.0647914        2       198         2.2124783        4
    90         0.1524821        2       199         2.3756803        4
    91         0.1758118        2       200         3.0695649        4
    92         0.3297288        2       201         3.7396768        4
    93         0.3981385        2       202         4.1759691        4
    94         0.6203789        2       203         4.4141142        4
    95         0.7501136        2       204         5.1858734        4
    96         0.8332168        2       205         5.9123824        4
    97         0.8759728        2       206         6.3237395        4
    98         1.0954357        2       207         6.6432158        4
    99         1.4526578        2       208         7.6514347        4
   100         1.5415542        2       209        10.6006336        4
   101         1.8575615        2       210        11.2166708        4
   102         1.9474725        2       211        12.3685891        4
   103         2.2578987        2       212        12.9496260        4
   104         2.3395837        2       213        26.6235197        4
   105         2.3910612        2       214        47.1510188        4
   106         2.6082984        2       215        98.7460456        4
   107         2.9088596        2       216       103.3498015        4
   108         3.7626025        2       217       115.2550416        4
   109         4.0750997        2       218       198.6002170        4
------------------------------------------------------------------------
  -20.6611283715420       -11.3266257666994       -1.57340970027162     
 -0.811220567413089      -0.545069882347294      -0.674233054273213     
 -0.674233054273213       5.830256206238307E-002  7.691189401831543E-002
  0.155845121091004       0.227330312660244       0.228152840935632     
  0.302307187262964       0.394872346467286       0.507795532012813     
  0.529223459226905       0.658644589347157       0.770710067053396     
  0.783398187301633       0.875479557207957       0.896731209980080     
  0.940718891114201        1.26139936031367        1.50704629872069     
   1.51096268106392        1.66061669285245        1.75437996920283     
   1.77533844311915        2.11046885317867        2.18061468609498     
   2.21247833473951        2.32508746825213        2.37568026408934     
   2.51500777143463        3.04204499158474        3.06956489182416     
   3.44093913928185        3.73967676700963        3.97178611510087     
   4.17596905558212        4.29646907352452        4.41411420440366     
   4.64609890879260        4.96581701584072        5.18587344152467     
   5.91238238023130        6.10214264845787        6.21658006400033     
   6.32373949407071        6.64321581800461        7.13231730985763     
   7.65143474580640        8.00816508383288        8.52333914847801     
   10.1897430374895        10.6006336060522        11.2166707672659     
   11.2542074886864        12.0807269124320        12.3685890809629     
   12.9496259596663        13.6567334343555        15.8244944334465     
   18.2419017771172        20.9944720831632        26.6235197406812     
   28.5485575642277        35.3265330923294        37.2006008235376     
   47.1510187671626        48.7247417059373        64.4328520347156     
   68.0556402994111        98.7460455590934        98.8395370059090     
   103.349801451543        103.468242755897        115.255041601818     
   116.160665326540        118.486028337360        123.129441974434     
[...]
 Convergence information after     8 iterations: 
 Largest element of residual vector : -0.19836747E-04.
 Largest element of DIIS residual   :  0.15801227E-04.
 Convergence information after     9 iterations: 
 Largest element of residual vector :  0.69821411E-05.
 Largest element of DIIS residual   :  0.39478033E-05.
 Convergence information after    10 iterations: 
 Largest element of residual vector :  0.31547931E-05.
 Largest element of DIIS residual   :  0.20686902E-05.
 Convergence information after    11 iterations: 
 Largest element of residual vector :  0.10348179E-05.
 Largest element of DIIS residual   :  0.47926585E-06.
 Convergence information after    12 iterations: 
 Largest element of residual vector :  0.43968138E-06.
 Largest element of DIIS residual   :  0.25864637E-06.
 Convergence information after    13 iterations: 
 Largest element of residual vector :  0.17055901E-06.
 Largest element of DIIS residual   :  0.15907348E-06.
 Convergence information after    14 iterations: 
 Largest element of residual vector :  0.11547597E-06.
 Largest element of DIIS residual   :  0.78548142E-07.
 Perturbed amplitude equations converged in    14 iterations.
  Dominant contributions to perturbed wavefunction:
    7    7  142   37   0.2455568948 ABAB
    7    7   37  142   0.2455568948 ABAB
    7    7  142   27   0.2249875322 ABAB
    7    7   27  142   0.2249875322 ABAB
    7    7  142   55   0.1880685701 ABAB
    7    7   55  142   0.1880685701 ABAB
    7    7  142   63   0.1840808693 ABAB
    7    7   63  142   0.1840808693 ABAB
    7    7  142   47   0.1698925810 ABAB
    7    7   47  142   0.1698925810 ABAB
    7    6   37   91   0.1662795147 ABAB
    6    7   91   37   0.1662795147 ABAB
    7    6   27   91   0.1517872105 ABAB
    6    7   91   27   0.1517872105 ABAB
    7    7  142   51  -0.1465769851 ABAB
    7    7   51  142  -0.1465769851 ABAB
    7    7  142   19   0.1413248534 ABAB
    7    7   19  142   0.1413248534 ABAB
    5    5  142   44   0.1381008811 ABAB
    5    5   44  142   0.1381008811 ABAB
  norm of converged amps    2.65628174662933     
 Starting iterative solution of the perturbed Lambda equations.
 The DIIS procedure is used to accelerate convergence.
 Convergence criterion is 10**(-7).
 Maximum number of iterations is 100.
 Convergence information after     1 iterations: 
 Largest element of residual vector : -0.65668193E-01.
 Largest element of DIIS residual   : -0.65668193E-01.
 Convergence information after     2 iterations: 
 Largest element of residual vector :  0.66423518E-02.
 Largest element of DIIS residual   :  0.55989266E-02.
 Convergence information after     3 iterations: 
 Largest element of residual vector : -0.36998489E-02.
 Largest element of DIIS residual   : -0.33200785E-02.
 Convergence information after     4 iterations: 
 Largest element of residual vector : -0.23341532E-02.
 Largest element of DIIS residual   : -0.17950383E-02.
 Convergence information after     5 iterations: 
 Largest element of residual vector : -0.13005085E-02.
 Largest element of DIIS residual   : -0.59593354E-03.
 Convergence information after     6 iterations: 
 Largest element of residual vector : -0.41306309E-03.
 Largest element of DIIS residual   : -0.97613286E-04.
 Convergence information after     7 iterations: 
 Largest element of residual vector : -0.70463591E-04.
 Largest element of DIIS residual   : -0.35341721E-04.
 Convergence information after     8 iterations: 
 Largest element of residual vector : -0.15482296E-04.
 Largest element of DIIS residual   :  0.13202506E-04.
 Convergence information after     9 iterations: 
 Largest element of residual vector :  0.59424860E-05.
 Largest element of DIIS residual   :  0.33904535E-05.
 Convergence information after    10 iterations: 
 Largest element of residual vector :  0.26415758E-05.
 Largest element of DIIS residual   :  0.17650948E-05.
 Convergence information after    11 iterations: 
 Largest element of residual vector :  0.87862056E-06.
 Largest element of DIIS residual   :  0.46085787E-06.
 Convergence information after    12 iterations: 
 Largest element of residual vector :  0.39574382E-06.
 Largest element of DIIS residual   :  0.25069992E-06.
 Convergence information after    13 iterations: 
 Largest element of residual vector :  0.16391893E-06.
 Largest element of DIIS residual   :  0.15417784E-06.
 Convergence information after    14 iterations: 
 Largest element of residual vector :  0.11182852E-06.
 Largest element of DIIS residual   :  0.74723923E-07.
 Perturbed Lambda equations converged in    14 iterations.
  Dominant contributions to perturbed wavefunction:
    7    7  142   37   0.2352283245 ABAB
    7    7   37  142   0.2352283245 ABAB
    7    7  142   27   0.2147201363 ABAB
    7    7   27  142   0.2147201363 ABAB
    7    7  142   55   0.1783165820 ABAB
    7    7   55  142   0.1783165820 ABAB
    7    7  142   63   0.1759823046 ABAB
    7    7   63  142   0.1759823046 ABAB
    7    7  142   47   0.1623648829 ABAB
    7    7   47  142   0.1623648829 ABAB
    7    6   37   91   0.1575425971 ABAB
    6    7   91   37   0.1575425971 ABAB
    7    6   27   91   0.1430779537 ABAB
    6    7   91   27   0.1430779537 ABAB
    7    7  142   51  -0.1404585116 ABAB
    7    7   51  142  -0.1404585116 ABAB
    7    7  142   19   0.1349396868 ABAB
    7    7   19  142   0.1349396868 ABAB
    5    5  142   44   0.1322314829 ABAB
    5    5   44  142   0.1322314829 ABAB
        The DBOC first-order density matrix is being calculated 
             (Symmetry block 3, perturbation   2)
 term   8.35318312796907     
 final tnorm  0.896241174731766     
  norm contr. I: |<0|L dT/dx|0>|^2   0.000000000000000E+000
  norm contr. II: <0|[nabla(1+L)e-T][nabla e^T]|0>   8.35318312796907     
  total norm contribution   8.35318312796907     
 oo  1.165351150180224E-002
 vv  -55.7443471632902     
 vo  3.003053688892765E-002
  Correlated perturbed 1-el contribution to DBOC  -55.7026631148995       cm**-1
  SUM_I |dc_I/dx|^2 contribution to DBOC   27.9447284897841       cm**-1
 
 
  The total diagonal Born-Oppenheimer correction (DBOC) is:      0.0038765832 a.u.
  The total diagonal Born-Oppenheimer correction (DBOC) is:        850.811676 cm-1
 
 Total CC energy including DBOC  -113.269761967327     
 First-order density matrix is being calculated  (Symmetry block 3, perturbation   2)
 Calculation of the contributions of <pq||rs> to dI(i,j)/dx required   3.1 seconds.
 Calculation of the contributions of <pq||rs> to dI(a,b)/dx required  16.4 seconds.
 Calculation of the contributions of <pq||rs> to dI(i,a)/dx required   9.5 seconds.
 First-order Z-vector equations are solved for 1 perturbation.
 Convergence reached after  17 iterations.
        U*G(pq,rs) contribution is being calculated
             (Symmetry block 3, perturbation   2)

 CCSD contribution to force constants 

        0.0000000000        0.0000000000        0.0000000000
        0.0000000000        0.0000000000        0.0000000000
        0.0000000000        0.0000000000        0.0000000000
        0.0000000000        0.0000000000        0.0000000000
        0.0000000000        0.0000000000        0.0000000000
        0.0000000000        0.0000000000        0.0000000000
        0.0000000000        0.0000000000        0.0000000000
        0.0000000000        0.0000000000        0.0000000000
        0.0000000000        0.0000000000        0.0000000000
        0.0000000000        0.0000000000        0.0000000000
        0.0000000000        0.0000000000        0.0000000000
        0.0000000000       -6.5088072093        6.5088072093

 CCSD contribution to dipole derivatives 

        0.0000000000        0.0000000000        0.0000000000
        0.0000000000        0.0000000000        0.0000000000
        0.0000000000        0.0000000000        0.0000000000
        0.0000000000        0.0000000000       -0.0412522118
        0.0000000000        0.0000000000        0.0000000000
        0.0000000000        0.0000000000        0.0000000000
 @CHECKOUT-I, Total execution time (CPU/WALL):     1197.51/     503.16 seconds.
--executable xsdcc finished with status     0 in      503.39 seconds (walltime).
 --invoking executable--
/nfs/workspaces/public/cfour_mpi/bin/xanti
 @GETMEM-I,  Allocated    3814 MB of main memory.
 CCSD MO derivative gammas will be sorted to Mulliken order.
 @CHECKOUT-I, Total execution time (CPU/WALL):       13.65/      39.28 seconds.
--executable xanti finished with status     0 in       39.42 seconds (walltime).
 --invoking executable--
/nfs/workspaces/public/cfour_mpi/bin/xbcktrn
 @GETMEM-I,  Allocated    3814 MB of main memory.
 CCSD MO derivative gammas will be transformed to the AO basis.
 @CHECKOUT-I, Total execution time (CPU/WALL):       31.24/       5.63 seconds.
--executable xbcktrn finished with status     0 in        5.69 seconds (walltime).
 --invoking executable--
/nfs/workspaces/public/cfour_mpi/bin/xvdint
 @GETMEM-I,  Allocated    3814 MB of main memory.
 One- and two-electron integral derivatives are calculated
 for RHF-CC/MBPT hessians and dipole derivatives.
 Spherical gaussians are used.
  magnet F F
                    8722  records have been written to the Sort file.
  Total length of Sort file :             178609116  words.
 Evaluation of 2el integral derivatives

                      Two-electron integral gradient
                      ------------------------------

                         C #1 z     0.0000000000
                         O #2 z     0.0000000000


 C #1       0.0000000000           -1.0039645227            0.0000000000
 O #2       0.0000000000            1.0039645227            0.0000000000


 Evaluation of 2e integral derivatives required  356.45 seconds.
  contribution to Hessian
        0.0000000000        0.0000000000        0.0000000000
        0.0000000000       -1.0039645227        1.0039645227
 @CHECKOUT-I, Total execution time (CPU/WALL):      356.41/      71.56 seconds.
--executable xvdint finished with status     0 in       71.74 seconds (walltime).
 --invoking executable--
/nfs/workspaces/public/cfour_mpi/bin/xanti
 @GETMEM-I,  Allocated    3814 MB of main memory.
 CCSD MO gammas will be sorted to Mulliken order.
 @CHECKOUT-I, Total execution time (CPU/WALL):       15.98/      56.25 seconds.
--executable xanti finished with status     0 in       56.58 seconds (walltime).
 --invoking executable--
/nfs/workspaces/public/cfour_mpi/bin/xbcktrn
 @GETMEM-I,  Allocated    3814 MB of main memory.
 CCSD MO gammas will be transformed to the AO basis.
 @CHECKOUT-I, Total execution time (CPU/WALL):       54.25/      10.32 seconds.
--executable xbcktrn finished with status     0 in       10.42 seconds (walltime).
 --invoking executable--
/nfs/workspaces/public/cfour_mpi/bin/xvdint
 @GETMEM-I,  Allocated    3814 MB of main memory.
 One- and two-electron integral derivatives are calculated
 for RHF-CC/MBPT hessians and dipole derivatives.
 Spherical gaussians are used.
  magnet F F

                     Kinetic energy integral gradient
                     --------------------------------

                         C #1 z    -1.7303849220
                         O #2 z     1.7303849220


 C #1       0.0000000000            0.0000000000           -1.7303849220
 O #2       0.0000000000            0.0000000000            1.7303849220



                   Nuclear attraction integral gradient
                   ------------------------------------

                         C #1 z    25.6373622605
                         O #2 z   -25.6373622605


 C #1       0.0000000000            0.0000000000           25.6373622605
 O #2       0.0000000000            0.0000000000          -25.6373622605



                      Reorthonormalization gradient
                      -----------------------------

                         C #1 z     0.0000000000
                         O #2 z     0.0000000000


 C #1       0.0000000000            0.0000000000            0.0000000000
 O #2       0.0000000000            0.0000000000            0.0000000000



                     Kinetic energy integral Hessian
                     -------------------------------


           Symmetry 1

           C #1 z      O #2 z

 C #1 z    0.986870
 O #2 z   -0.986870    0.986870


           Symmetry 2

           C #1 x      O #2 x

 C #1 x   -2.609244
 O #2 x    2.609244   -2.609244


           Symmetry 3

           C #1 y      O #2 y

 C #1 y   -2.609244
 O #2 y    2.609244   -2.609244




           C #1 x      C #1 y      C #1 z      O #2 x      O #2 y      O #2 z

 C #1 x   -2.609244
 C #1 y    0.000000   -2.609244
 C #1 z    0.000000    0.000000    0.986870

 O #2 x    2.609244    0.000000    0.000000   -2.609244
 O #2 y    0.000000    2.609244    0.000000    0.000000   -2.609244
 O #2 z    0.000000    0.000000   -0.986870    0.000000    0.000000    0.986870




                   Nuclear attraction integral Hessian
                   -----------------------------------


           Symmetry 1

           C #1 z      O #2 z

 C #1 z  -13.357110
 O #2 z   13.357110  -13.357110


           Symmetry 2

           C #1 x      O #2 x

 C #1 x   25.526178
 O #2 x  -25.526178   25.526178


           Symmetry 3

           C #1 y      O #2 y

 C #1 y   25.526178
 O #2 y  -25.526178   25.526178




           C #1 x      C #1 y      C #1 z      O #2 x      O #2 y      O #2 z

 C #1 x   25.526178
 C #1 y    0.000000   25.526178
 C #1 z    0.000000    0.000000  -13.357110

 O #2 x  -25.526178    0.000000    0.000000   25.526178
 O #2 y    0.000000  -25.526178    0.000000    0.000000   25.526178
 O #2 z    0.000000    0.000000   13.357110    0.000000    0.000000  -13.357110




                Highest order reorthonormalization Hessian
                ------------------------------------------


           Symmetry 1

           C #1 z      O #2 z

 C #1 z    0.000000
 O #2 z    0.000000    0.000000


           Symmetry 2

           C #1 x      O #2 x

 C #1 x    0.000000
 O #2 x    0.000000    0.000000


           Symmetry 3

           C #1 y      O #2 y

 C #1 y    0.000000
 O #2 y    0.000000    0.000000




           C #1 x      C #1 y      C #1 z      O #2 x      O #2 y      O #2 z




                Electronic contributions to dipole moment
                -----------------------------------------

                               au             Debye

                    z     -0.93786327     -2.38381107

  Conversion factor used: 1 a.u. =   2.54174691 Debye 



   Electronic contributions to static part of dipole moment derivatives
   --------------------------------------------------------------------


                     Total dipole moment derivatives
                     -------------------------------


           Symmetry 1
                              Ez

               C #1 z    -5.75597806
               O #2 z    -8.24402194

           Symmetry 2
                              Ex

               C #1 x    -5.84398196
               O #2 x    -8.15601804

           Symmetry 3
                              Ey

               C #1 y    -5.84398196
               O #2 y    -8.15601804



                       Ex          Ey          Ez

      C #1    x   -5.843982    0.000000    0.000000
      C #1    y    0.000000   -5.843982    0.000000
      C #1    z    0.000000    0.000000   -5.755978

      O #2    x   -8.156018    0.000000    0.000000
      O #2    y    0.000000   -8.156018    0.000000
      O #2    z    0.000000    0.000000   -8.244022

 Evaluation of 1e integral derivatives required    1.66 seconds.
                    8815  records have been written to the Sort file.
  Total length of Sort file :             180513570  words.
 Evaluation of 2el integral derivatives

                      Two-electron integral gradient
                      ------------------------------

                         C #1 z   -11.6587901161
                         O #2 z    11.6587901161


 C #1       0.0000000000            0.0000000000          -11.6587901161
 O #2       0.0000000000            0.0000000000           11.6587901161


 Evaluation of 2e integral derivatives required  718.51 seconds.

                            Molecular gradient
                            ------------------

                         C #1 z     0.1757080702
                         O #2 z    -0.1757080702


 C #1       0.0000000000            0.0000000000            0.1757080702
 O #2       0.0000000000            0.0000000000           -0.1757080702


  Molecular gradient norm 0.248E+00

                            Molecular hessian
                            -----------------


           Symmetry 1

           C #1 z      O #2 z

 C #1 z   79.915179
 O #2 z  -79.915179   79.915179


           Symmetry 2

           C #1 x      O #2 x

 C #1 x    7.321551
 O #2 x   -7.321551    7.321551


           Symmetry 3

           C #1 y      O #2 y

 C #1 y    7.321551
 O #2 y   -7.321551    7.321551




           C #1 x      C #1 y      C #1 z      O #2 x      O #2 y      O #2 z

 C #1 x    7.321551
 C #1 y    0.000000    7.321551
 C #1 z    0.000000    0.000000   79.915179

 O #2 x   -7.321551    0.000000    0.000000    7.321551
 O #2 y    0.000000   -7.321551    0.000000    0.000000    7.321551
 O #2 z    0.000000    0.000000  -79.915179    0.000000    0.000000   79.915179




                           Total dipole moment
                           -------------------

                               au             Debye

                    z     -0.14058091     -0.35732109

  Conversion factor used: 1 a.u. =   2.54174691 Debye 



                     Total dipole moment derivatives
                     -------------------------------


           Symmetry 1
                              Ez

               C #1 z     0.69857903
               O #2 z    -0.69857903

           Symmetry 2
                              Ex

               C #1 x    -0.07384572
               O #2 x     0.07384572

           Symmetry 3
                              Ey

               C #1 y    -0.07384572
               O #2 y     0.07384572



                       Ex          Ey          Ez

      C #1    x   -0.073846    0.000000    0.000000
      C #1    y    0.000000   -0.073846    0.000000
      C #1    z    0.000000    0.000000    0.698579

      O #2    x    0.073846    0.000000    0.000000
      O #2    y    0.000000    0.073846    0.000000
      O #2    z    0.000000    0.000000   -0.698579

 @CHECKOUT-I, Total execution time (CPU/WALL):      720.16/     128.61 seconds.
--executable xvdint finished with status     0 in      128.81 seconds (walltime).
 --invoking executable--
/nfs/workspaces/public/cfour_mpi/bin/xjoda
  @GTFLGS-I, Hessian will be transformed to curvilinear coordinates.
  @GTFLGS-I, Hessian will be transformed to curvilinear coordinates.
  igrd and ihes are                      0                     1
  gradient from JOBARC 
   0.000000000000000   0.000000000000000   0.175708070231854
   0.000000000000000   0.000000000000000  -0.175708070231854
 
  @PROJFCM-I, Projecting force constant matrix onto totally symmetric subspace.
  Largest difference between matrix elements of symmetrized
  and unsymmetrized FCM :    -0.5293543381E-12.
  read isotopes from ZMAT file 
 
  Summary of diagonal Born-Oppenheimer correction at the correlated level
  The total diagonal Born-Oppenheimer correction (DBOC) is:      0.0038765832 a.u.
  The total diagonal Born-Oppenheimer correction (DBOC) is:        850.811676 cm-1
  The total diagonal Born-Oppenheimer correction (DBOC) is:            10.178 kJ/mole
  hellooooooo 
  readis is  F
 
 @CHECKOUT-I, Total execution time (CPU/WALL):        0.02/       0.11 seconds.
--executable xjoda finished with status     0 in        0.17 seconds (walltime).
  The final electronic energy is      -113.269761967327213 a.u. 
  This computation required                         4463.47 seconds (walltime).
