 --invoking executable--
/nfs/workspaces/public/cfour_mpi/bin/xjoda


   *************************************************************************
         <<<     CCCCCC     CCCCCC   |||     CCCCCC     CCCCCC   >>>
       <<<      CCC        CCC       |||    CCC        CCC         >>>
      <<<      CCC        CCC        |||   CCC        CCC            >>>
    <<<        CCC        CCC        |||   CCC        CCC              >>>
      <<<      CCC        CCC        |||   CCC        CCC            >>>
       <<<      CCC        CCC       |||    CCC        CCC         >>>
         <<<     CCCCCC     CCCCCC   |||     CCCCCC     CCCCCC   >>>
   *************************************************************************

     ****************************************************************
     * CFOUR Coupled-Cluster techniques for Computational Chemistry *
     ****************************************************************
 

   Department of Chemistry                Institut fuer Physikalische Chemie
   University of Florida                  Universitaet Mainz
   Gainesville, FL 32611, USA             D-55099 Mainz, Germany

   Department of Chemistry                Fakultaet fuer Chemie und Biowiss.
   Johns Hopkins University               Karlsruher Institut fuer Technologie
   Baltimore, MD 21218, USA               D-76131 Karlsruhe, Germany

   Department of Chemistry                Department of Physical Chemistry
   Southern Methodist University          Eotvos Lorand University
   Dallas, TX 75275, USA                  H-1053 Budapest, Hungary

 
                       Version 2.1
 
                     vincent.theory.phys.ucl.ac.uk                     
                     Mon  3 Mar 00:53:27 GMT 2025                      
                     integer*8 version is running
 
********************************************************************************
*                          Input from ZMAT file                                *
********************************************************************************
Carbon Monoxide DBOC calculation                                                
C                                                                               
O 1 r                                                                           
                                                                                
r=1.4896551724137932                                                            
                                                                                
                                                                                
*CFOUR(CALC=CCSD,BASIS=AUG-PCVQZ,SCF_CONV=10                                    
CC_CONV=14,DBOC=ON,MEMORY=500000000                                             
ZFIELD=200)                                                                     
                                                                                
%isotopes                                                                       
12                                                                              
18                                                                              
********************************************************************************
  @GTFLGS-I, Hessian will be transformed to curvilinear coordinates.
    -------------------------------------------------------------------
                    CFOUR Control Parameters 
    -------------------------------------------------------------------
        External           Internal           Value            Units
          Name               Name
    -------------------------------------------------------------------
       ABCDTYPE             IABCDT         STANDARD    [  0]    ***   
       ANHARMONIC           IANHAR         OFF         [  0]    ***   
       ANH_ALGORIT          IANALG         STANDARD    [  0]    ***   
       ANH_DERIVAT          IANDER         SECOND      [  1]    ***   
       ANH_MODE             ANHMOD         VIBRATION   [  0]    ***   
       ANH_STEPSIZ          ICUBST             50000          x 10-6  
       ANH_SYMMETR          IANHSM         ABELIAN     [  0]    ***   
       AO_LADDERS           IAOLAD         SINGLEPASS  [  1]    ***   
       AV_SCF               IAVSCF         OFF         [  0]    ***   
       BASIS                IBASIS         AUG-PCVQZ   [ 52]    ***   
       BOTHVECTORS          BOTHVC         OFF         [  0]    ***   
       BOX_POTENT           IPIAB          OFF         [  0]    ***   
       BREIT                IBREIT         OFF         [  0]    ***   
       BRUCK_CONV           IBRTOL          10D-  4             ***   
       BRUECKNER            IBRKNR         OFF         [  0]    ***   
       BUFFERSIZE           IBUFFS              4096            ***   
       CACHE_RECS           ICHREC             10               ***   
       CALCLEVEL            ICLLVL         CCSD        [ 10]    ***   
       CCORBOPT             ICCORB         OFF         [  0]  x 0.01  
       CC_CONV              ICCCNV          10D- 14             ***   
       CC_EXPORDER          ICCEOR              5               ***   
       CC_EXTRAPOL          ICCEXT         DIIS        [  1]    ***   
       CC_GUESS             ICCGES         MP2         [  0]    ***   
       CC_MAXCYC            ICCCYC            100              cycles 
       CC_PROGRAM           ICCPRO         VCC         [  0]    ***   
       CHARGE               ICHRGE              0               ***   
       CHOLESKY             ICHOLE         OFF         [  0]    ***   
       CIS_CONV             ICISTL              5               ***   
       COMM_SIZE            IPSIZE            ***               ***   
       CONSTANT             ICONST         OLD         [  1]    ***   
       CONTINUUM            ICONTU         NONE        [  0]    ***   
       CONTRACTION          ICNTYP         GENERAL     [  1]    ***   
       COORDINATES          ICOORD         INTERNAL    [  0]    ***   
       CPHF_CONVER          ICPHFT          10D- 16             ***   
       CPHF_MAXCYC          ICPHFC             64              cycles 
       CUBIC                ICUBIC         OFF         [  0]    ***   
       CURVILINEAR          ICURVY         ON          [  1]    ***   
       DBOC                 IDBOC          ON          [  1]    ***   
       DCT                  IDCT           OFF         [  0]    ***   
       DERIV_LEV            IDRLVL         SECOND      [  2]    ***   
       DEVMEM_SIZE          IDVMEM          50000000           MByte  
       DIAG_MRCC            IEOMST          10D-  0             ***   
       DIFF_TYPE            IDIFTY         RELAXED     [  0]    ***   
       DIRECT               IDIRCT         OFF         [  0]    ***   
       DROPMO               IDRPMO      NONE         
       ECP                  IECP           OFF         [  0]    ***   
       EIGENVECTOR          IVEC                1               ***   
       EL_ANHARM            IELANH         OFF         [  0]    ***   
       EOMFOLLOW            IEOMSR         ENERGY      [  0]    ***   
       EOMIP                IEOMIP         OFF         [  0]    ***   
       EOMLEVEL             HBARFM         SAME        [  0]    ***   
       EOM_MRCC             IMRCCE         NEW         [  1]    ***   
       EOM_NONIT            EOMNON         OFF         [  0]    ***   
       EOM_NSING            IEOMSI          10D-  0             ***   
       EOM_NSTATES          IMRCCD         DAVIDSON    [  0]    ***   
       EOM_NTRIP            IEOMTR          10D-  0             ***   
       EOM_ORDER            IEXORD         ENERGY      [  0]    ***   
       EOM_PROPSTA          IEOMST              0               ***   
       ESTATE_CONV          IEXTOL          10D-  5             ***   
       ESTATE_DIAG          IEXDIG         ITERATIVE   [  0]    ***   
       ESTATE_LOCK          IESLOC         ON          [  1]    ***   
       ESTATE_MAXC          IEXMXC             40               ***   
       ESTATE_PROP          IEXPRP         OFF         [  0]    ***   
       EVAL_HESS            IRECAL              0            # of cyc.
       EXCITATION           IEXCIT              0               ***   
       EXCITE               IEXCIT         NONE        [  0]    ***   
       EXTERN_POT           IEXPOT         OFF         [  0]    ***   
       FCGRADNEW            IFCGNW         OFF         [  0]    ***   
       FC_FIELD             IFINFC              0             x 10-6  
       FD_CALTYPE           IFDCAL         GRADONLY    [  0]    ***   
       FD_PROJECT           IFDPRJ         OFF         [  1]    ***   
       FD_STEPSIZE          IDISFD              0            10-4 bohr
       FD_USEGROUP          IFDGRP         FULL        [  0]    ***   
       FILE_RECSIZ          IFLREC              4096           words  
       FINITE_PERT          IFIPER              0             x 10-6  
       FIXGEOM              IFIXGM         OFF         [  0]    ***   
       FOCK                 IFOCK          AO          [  1]    ***   
       FREQ_ALGORI          IVIALG         STANDARD    [  0]    ***   
       FROZEN_CORE          IFROCO         OFF         [  0]    ***   
       GAMMA_ABCD           IGABCD         STORE       [  0]    ***   
       GAMMA_ABCI           IGABCI         STORE       [  0]    ***   
       GENBAS_1             IGNBS1              0               ***   
       GENBAS_2             IGNBS2              0               ***   
       GENBAS_3             IGNBS3              0               ***   
       GENBAS_4             IGNBS4              0               ***   
       GEO_CONV             ICONTL              5              H/bohr 
       GEO_MAXCYC           IOPTCY             50               ***   
       GEO_MAXSTEP          IMXSTP            300            millibohr
       GEO_METHOD           INR            SINGLE_POINT[  5]    ***   
       GIAO                 IGIAO          OFF         [  1]    ***   
       GIMIC                IGIMIC         OFF         [  0]    ***   
       GRID                 IGRID          OFF         [  0]    ***   
       GRID_ALGO            IGALGO         SERIAL      [  0]    ***   
       GUESS                IGUESS         MOREAD      [  0]    ***   
       HBAR                 IHBAR          OFF         [  0]    ***   
       HESS_TYPE            IHESTP         SCF         [  0]    ***   
       HF2_FILE             IHF2Fl         USE         [  1]    ***   
       HFSTABILITY          ISTABL         OFF         [  0]    ***   
       INCORE               INCORE         OFF         [  0]    ***   
       INPUT_MRCC           IMRCC          ON          [  1]    ***   
       INTEGRALS            INTTYP         VMOL        [  1]    ***   
       JODA_PRINT           IJPRNT              0               ***   
       KEYWORD_OUT          IDMPKW         NO          [  0]    ***   
       LINDEP_TOL           ILINDP              8               ***   
       LINEQ_CONV           IZTACN          10D-  7           cycles  
       LINEQ_EXPOR          ILMAXD              5               ***   
       LINEQ_MAXCY          ILMAXC            100               ***   
       LINEQ_TYPE           ILTYPE         DIIS        [  1]    ***   
       LOCK_ORBOCC          ILOCOC         OFF         [  0]    ***   
       MEMORY_SIZE          IMEMSZ         500000000           words  
       MEM_UNIT             IMEMU          INTEGERWORDS[  0]    ***   
       MRCC                 IMRCCC         OFF         [  0]    ***   
       MULTIPLICTY          IMULTP              1               ***   
       NACOUPLING           IVCOUP         OFF         [  0]    ***   
       NEGEVAL              IDIE           ABORT       [  0]    ***   
       NEWNORM              INEWNO         OFF         [  0]    ***   
       NON-HF               INONHF         OFF         [  0]    ***   
       NTOP_TAMP            ITOPT2             15               ***   
       NUC_MODEL            INUCMO         POINT       [  0]    ***   
       OCCUPATION           IOCCU   ESTIMATED BY SCF 
       OPEN-SHELL           IOPEN          SPIN-ORBITAL[  0]    ***   
       OPTVIB               IOPTVB         OFF         [  0]    ***   
       ORBITALS             IORBTP         STANDARD    [  0]    ***   
       PARALLEL             IPARAL         ON          [  1]    ***   
       PARA_INT             IPINTS         ON          [  1]    ***   
       PARA_PRINT           IPPRIN              0               ***   
       PERT_ORB             IPTORB         STANDARD    [  0]    ***   
       POINTS               IGRDFD              0               ***   
       PRINT                IPRNT               0               ***   
       PROPS                IPROPS         OFF         [  0]    ***   
       PROP_INTEGR          IINTYP         INTERNAL    [  0]    ***   
       PSI                  IPSI           OFF         [  0]    ***   
       QC_ALG               IQCALG         FLM         [  0]    ***   
       QC_LINALG            IQCLIN         TRIDIAG     [  2]    ***   
       QC_MAXCYC            IQCMAX          10D-100           cycles  
       QC_MAXSCFCY          IQCMSC          10D- 15           cycles  
       QC_RTRUST            IQCRTR          10D-  0           x 10-3  
       QC_SKIPSCF           IQCSKI         OFF         [  0]    ***   
       QC_START             IQCSTA          10D-  1             ***   
       QRHFGUESS            IQGUES         OFF         [  0]    ***   
       QUARTIC              IQUART         OFF         [  0]    ***   
       RAMAN_INT            IRAMIN         OFF         [  0]    ***   
       RAMAN_ORB            IRAMRE         UNRELAXED   [  0]    ***   
       RDO                  IRDOFM         ON          [  1]    ***   
       REDUCE_REPR          REDREP         Ir          [  0]    ***   
       REFERENCE            IREFNC         RHF         [  0]    ***   
       RELATIVIST           IRELAT         OFF         [  0]    ***   
       RELAX_DENS           IRDENS         ON          [  1]    ***   
       RESET_FLAGS          IRESET         OFF         [  0]    ***   
       RESTART_CC           ICCRES         OFF         [  0]    ***   
       ROT_EVEC             ROTVEC              0               ***   
       SAVE_INTS            ISVINT         OFF         [  0]    ***   
       SCALE_ON             ISTCRT              0               ***   
       SCF_CONV             ISCFCV          10D- 10             ***   
       SCF_DAMPING          IDAMP               0             x 10-3  
       SCF_EXPORDE          IRPPOR              6               ***   
       SCF_EXPSTAR          IRPPLS              8               ***   
       SCF_EXTRAPO          IRPP           ON          [  1]    ***   
       SCF_MAXCYC           ISCFCY            150              cycles 
       SCF_NOSTOP           ISCFST         OFF         [  0]    ***   
       SCF_PRINT            ISCFPR              0               ***   
       SCF_PROG             ISCFPR         SCF         [  0]    ***   
       SD_FIELD             IFINSD              0             x 10-6  
       SOPERT               IPERSO         OFF         [  0]    ***   
       SPHERICAL            IDFGHI         ON          [  1]    ***   
       SPINORBIT            ISOCAL         OFF         [  0]    ***   
       SPINROTATIO          ISRCON         OFF         [  0]    ***   
       SPIN_FLIP            ISPFLP         OFF         [  0]    ***   
       SPIN_ORBIT           ISPORB         OFF         [  0]    ***   
       SPIN_SCAL            ISCSMP         OFF         [  0]    ***   
       STEEPSCALE           ISTPSC              1000          x 10-3  
       SUBGROUP             ISUBGP         DEFAULT     [  0]    ***   
       SUBGRPAXIS           ISBXYZ         X           [  0]    ***   
       SYMMETRY             ISYM           ON          [  0]    ***   
       SYM_CHECK            ISYMCK         OVERRIDE    [  1]    ***   
       T3_EXTRAPOL          IT3EXT         OFF         [  0]    ***   
       T4_EXTRAPOL          IT4EXP         OFF         [  0]    ***   
       TAMP_SUM             IEVERY              5               ***   
       TESTSUITE            ITESTS         OFF         [  0]    ***   
       THERMOCH             ITHERM         OFF         [  0]    ***   
       TOL_CHOLESK          ITOLCH          10D-  4             ***   
       TRANGRAD             IRESRM         OFF         [  0]    ***   
       TRANS_INV            ITRAIN         IGNORE      [  1]    ***   
       TREAT_PERT           ITREAT         SIMULTANEOUS[  0]    ***   
       TRIP_ALGORI          ITRALG         NORMAL      [  0]    ***   
       UIJ_THRESHO          IUIJTH              1               ***   
       UNITS                IUNITS         ANGSTROM    [  0]    ***   
       UNOS                 IUNOS          OFF         [  0]    ***   
       UPDATE_HESS          IHUPDT         ON          [  1]    ***   
       VIBPHASE             ISETPH         STANDARD    [  0]    ***   
       VIBRATION            IVIB           ANALYTIC    [  1]    ***   
       VIB_ALGORIT          IGEALG         STANDARD    [  0]    ***   
       VNATORB              IVNORB         OFF         [  0]    ***   
       VTRAN                IVTRAN         FULL/PARTIAL[  0]    ***   
       XFIELD               IXEFLD              0             x 10-6  
       XFORM_TOL            IXFTOL          10D- 11             ***   
       YFIELD               IYEFLD              0             x 10-6  
       ZFIELD               IZEFLD            200             x 10-6  
       ZSCALE_EXP           IZEXPS         OFF         [  0]    ***   
    -------------------------------------------------------------------
   2 entries found in Z-matrix 
   Job Title : Carbon Monoxide DBOC calculation                                                
   There are  1 unique internal coordinates.
   Of these,  0 will be optimized.
   User supplied Z-matrix: 
--------------------------------------------------------------------------------
       SYMBOL    BOND      LENGTH    ANGLE     ANGLE     DIHED     ANGLE
                  TO      (ANGST)    WRT      (DEG)      WRT      (DEG)
--------------------------------------------------------------------------------
        C    
        O          1         r    
                  *Initial values for internal coordinates* 
                      Name             Value
                        r               1.4896551724
--------------------------------------------------------------------------------
  read isotopes from ZMAT file 
   Rotational constants (in cm-1): 
          1.0551171086             1.0551171086
   Rotational constants (in MHz): 
      31631.6195787492         31631.6195787492
********************************************************************************
   The full molecular point group is CXv .
   The largest Abelian subgroup of the full molecular point group is C2v .
   The computational point group is C2v .
********************************************************************************
--------------------------------------------------------------------------------
   Analysis of internal coordinates specified by Z-matrix 
--------------------------------------------------------------------------------
   *The nuclear repulsion energy is   17.051262111111111 a.u.
   *There is   1 degree of freedom within the tot. symm. molecular subspace.
   *Z-matrix requests optimization of   0 coordinates.
   *The optimization is constrained.
   *The following   1 parameters can have non-zero 
    derivatives within the totally symmetric subspace:
             r    [ 1]
   *The following   0 parameters are to be optimized:

   *The following coordinates must be varied in an  unconstrained optimization.
             r    [ 1]
--------------------------------------------------------------------------------


 ----------------------------------------------------------------
         Coordinates used in calculation (QCOMP) 
 ----------------------------------------------------------------
 Z-matrix   Atomic            Coordinates (in bohr)
  Symbol    Number           X              Y              Z
 ----------------------------------------------------------------
     C         6        -0.00000000     0.00000000     1.68899301
     O         8         0.00000000     0.00000000    -1.12604787
 ----------------------------------------------------------------
 
   Interatomic distance matrix (Angstroms) 
 
                 C             O    
                [ 1]        [ 2]
  C    [ 1]     0.00000
  O    [ 2]     1.48966     0.00000
 rotcon2
   Rotational constants (in cm-1): 
          1.0551171086             0.0000000000
   Rotational constants (in MHz): 
      31631.6195787492             0.0000000000
  ECPDATA file not present.   Using default ECPDATA. 
  @GTFLGS-I, Hessian will be transformed to curvilinear coordinates.
  There are  218 basis functions.
 @CHECKOUT-I, Total execution time (CPU/WALL):        0.16/       0.24 seconds.
--executable xjoda finished with status     0 in        0.27 seconds (walltime).
 --invoking executable--
/nfs/workspaces/public/cfour_mpi/bin/xvmol
 SERIAL VERSION OF MOLECULE STARTED
********************************************************************************
                    INPUT FROM MOL FILE
********************************************************************************
INTGRL        1    0    1    0    0    0    0    0    0                         
         *** CFOUR Program System (Release V0.1) ***                            
Carbon Monoxide DBOC calculation                                                
    2    2 X  Y       0.10E-08              0    0                              
   9999.00      3.00                                                            
          6.00000000    1    5    1    1    1    1    1                         
C #1  -0.000000000000000   0.000000000000000   1.688993013496106                
   16    9                                                                      
   33980.0000000000       9.100000000000000E-005 -1.900000000000000E-005        
  0.000000000000000E+000  0.000000000000000E+000  0.000000000000000E+000        
  0.000000000000000E+000  0.000000000000000E+000  0.000000000000000E+000        
  0.000000000000000E+000                                                        
   5089.00000000000       7.040000000000000E-004 -1.510000000000000E-004        
  0.000000000000000E+000  0.000000000000000E+000  0.000000000000000E+000        
  0.000000000000000E+000  0.000000000000000E+000  0.000000000000000E+000        
  0.000000000000000E+000                                                        
   1157.00000000000       3.693000000000000E-003 -7.850000000000000E-004        
  0.000000000000000E+000  0.000000000000000E+000  0.000000000000000E+000        
  0.000000000000000E+000  0.000000000000000E+000  0.000000000000000E+000        
  0.000000000000000E+000                                                        
   326.600000000000       1.536000000000000E-002 -3.324000000000000E-003        
  0.000000000000000E+000  0.000000000000000E+000  0.000000000000000E+000        
  0.000000000000000E+000  0.000000000000000E+000  0.000000000000000E+000        
  0.000000000000000E+000                                                        
   106.100000000000       5.292900000000000E-002 -1.151200000000000E-002        
  0.000000000000000E+000  0.000000000000000E+000  0.000000000000000E+000        
  0.000000000000000E+000  0.000000000000000E+000  0.000000000000000E+000        
  0.000000000000000E+000                                                        
   38.1100000000000       0.147043000000000      -3.416000000000000E-002        
  0.000000000000000E+000  0.000000000000000E+000  0.000000000000000E+000        
  0.000000000000000E+000  0.000000000000000E+000  0.000000000000000E+000        
  0.000000000000000E+000                                                        
   14.7500000000000       0.305631000000000      -7.717300000000001E-002        
  0.000000000000000E+000  0.000000000000000E+000  0.000000000000000E+000        
  0.000000000000000E+000  0.000000000000000E+000  0.000000000000000E+000        
  0.000000000000000E+000                                                        
   6.03500000000000       0.399345000000000      -0.141493000000000             
  0.000000000000000E+000  0.000000000000000E+000  0.000000000000000E+000        
  0.000000000000000E+000  0.000000000000000E+000  0.000000000000000E+000        
  0.000000000000000E+000                                                        
   2.53000000000000       0.217051000000000      -0.118019000000000             
  0.000000000000000E+000  0.000000000000000E+000  0.000000000000000E+000        
  0.000000000000000E+000  0.000000000000000E+000  0.000000000000000E+000        
  0.000000000000000E+000                                                        
  0.735500000000000       1.589400000000000E-002  0.273806000000000             
   1.00000000000000       0.000000000000000E+000  0.000000000000000E+000        
  0.000000000000000E+000  0.000000000000000E+000  0.000000000000000E+000        
  0.000000000000000E+000                                                        
  0.290500000000000      -3.084000000000000E-003  0.586510000000000             
  0.000000000000000E+000   1.00000000000000       0.000000000000000E+000        
  0.000000000000000E+000  0.000000000000000E+000  0.000000000000000E+000        
  0.000000000000000E+000                                                        
  0.111100000000000       9.779999999999999E-004  0.285430000000000             
  0.000000000000000E+000  0.000000000000000E+000   1.00000000000000             
  0.000000000000000E+000  0.000000000000000E+000  0.000000000000000E+000        
  0.000000000000000E+000                                                        
   7.21600000000000       0.000000000000000E+000  0.000000000000000E+000        
  0.000000000000000E+000  0.000000000000000E+000  0.000000000000000E+000        
   1.00000000000000       0.000000000000000E+000  0.000000000000000E+000        
  0.000000000000000E+000                                                        
   19.5700000000000       0.000000000000000E+000  0.000000000000000E+000        
  0.000000000000000E+000  0.000000000000000E+000  0.000000000000000E+000        
  0.000000000000000E+000   1.00000000000000       0.000000000000000E+000        
  0.000000000000000E+000                                                        
   53.0730000000000       0.000000000000000E+000  0.000000000000000E+000        
  0.000000000000000E+000  0.000000000000000E+000  0.000000000000000E+000        
  0.000000000000000E+000  0.000000000000000E+000   1.00000000000000             
  0.000000000000000E+000                                                        
  4.145000000000000E-002  0.000000000000000E+000  0.000000000000000E+000        
  0.000000000000000E+000  0.000000000000000E+000  0.000000000000000E+000        
  0.000000000000000E+000  0.000000000000000E+000  0.000000000000000E+000        
   1.00000000000000                                                             
   10    8                                                                      
   34.5100000000000       5.378000000000000E-003  0.000000000000000E+000        
  0.000000000000000E+000  0.000000000000000E+000  0.000000000000000E+000        
  0.000000000000000E+000  0.000000000000000E+000  0.000000000000000E+000        
   7.91500000000000       3.613200000000000E-002  0.000000000000000E+000        
  0.000000000000000E+000  0.000000000000000E+000  0.000000000000000E+000        
  0.000000000000000E+000  0.000000000000000E+000  0.000000000000000E+000        
   2.36800000000000       0.142493000000000       0.000000000000000E+000        
  0.000000000000000E+000  0.000000000000000E+000  0.000000000000000E+000        
  0.000000000000000E+000  0.000000000000000E+000  0.000000000000000E+000        
  0.813200000000000       0.342150000000000        1.00000000000000             
  0.000000000000000E+000  0.000000000000000E+000  0.000000000000000E+000        
  0.000000000000000E+000  0.000000000000000E+000  0.000000000000000E+000        
  0.289000000000000       0.463864000000000       0.000000000000000E+000        
   1.00000000000000       0.000000000000000E+000  0.000000000000000E+000        
  0.000000000000000E+000  0.000000000000000E+000  0.000000000000000E+000        
  0.100700000000000       0.250028000000000       0.000000000000000E+000        
  0.000000000000000E+000   1.00000000000000       0.000000000000000E+000        
  0.000000000000000E+000  0.000000000000000E+000  0.000000000000000E+000        
   8.18200000000000       0.000000000000000E+000  0.000000000000000E+000        
  0.000000000000000E+000  0.000000000000000E+000   1.00000000000000             
  0.000000000000000E+000  0.000000000000000E+000  0.000000000000000E+000        
   24.1860000000000       0.000000000000000E+000  0.000000000000000E+000        
  0.000000000000000E+000  0.000000000000000E+000  0.000000000000000E+000        
   1.00000000000000       0.000000000000000E+000  0.000000000000000E+000        
   71.4940000000000       0.000000000000000E+000  0.000000000000000E+000        
  0.000000000000000E+000  0.000000000000000E+000  0.000000000000000E+000        
  0.000000000000000E+000   1.00000000000000       0.000000000000000E+000        
  3.218000000000000E-002  0.000000000000000E+000  0.000000000000000E+000        
  0.000000000000000E+000  0.000000000000000E+000  0.000000000000000E+000        
  0.000000000000000E+000  0.000000000000000E+000   1.00000000000000             
    6    6                                                                      
   1.84800000000000        1.00000000000000       0.000000000000000E+000        
  0.000000000000000E+000  0.000000000000000E+000  0.000000000000000E+000        
  0.000000000000000E+000                                                        
  0.649000000000000       0.000000000000000E+000   1.00000000000000             
  0.000000000000000E+000  0.000000000000000E+000  0.000000000000000E+000        
  0.000000000000000E+000                                                        
  0.228000000000000       0.000000000000000E+000  0.000000000000000E+000        
   1.00000000000000       0.000000000000000E+000  0.000000000000000E+000        
  0.000000000000000E+000                                                        
   8.65600000000000       0.000000000000000E+000  0.000000000000000E+000        
  0.000000000000000E+000   1.00000000000000       0.000000000000000E+000        
  0.000000000000000E+000                                                        
   33.2130000000000       0.000000000000000E+000  0.000000000000000E+000        
  0.000000000000000E+000  0.000000000000000E+000   1.00000000000000             
  0.000000000000000E+000                                                        
  7.660000000000000E-002  0.000000000000000E+000  0.000000000000000E+000        
  0.000000000000000E+000  0.000000000000000E+000  0.000000000000000E+000        
   1.00000000000000                                                             
    4    4                                                                      
   1.41900000000000        1.00000000000000       0.000000000000000E+000        
  0.000000000000000E+000  0.000000000000000E+000                                
  0.485000000000000       0.000000000000000E+000   1.00000000000000             
  0.000000000000000E+000  0.000000000000000E+000                                
   24.6940000000000       0.000000000000000E+000  0.000000000000000E+000        
   1.00000000000000       0.000000000000000E+000                                
  0.187000000000000       0.000000000000000E+000  0.000000000000000E+000        
  0.000000000000000E+000   1.00000000000000                                     
    2    2                                                                      
   1.01100000000000        1.00000000000000       0.000000000000000E+000        
  0.424000000000000       0.000000000000000E+000   1.00000000000000             
          8.00000000    1    5    1    1    1    1    1                         
O #2   0.000000000000000   0.000000000000000  -1.126047872463988                
   16    9                                                                      
   61420.0000000000       9.000000000000001E-005 -2.000000000000000E-005        
  0.000000000000000E+000  0.000000000000000E+000  0.000000000000000E+000        
  0.000000000000000E+000  0.000000000000000E+000  0.000000000000000E+000        
  0.000000000000000E+000                                                        
   9199.00000000000       6.980000000000001E-004 -1.590000000000000E-004        
  0.000000000000000E+000  0.000000000000000E+000  0.000000000000000E+000        
  0.000000000000000E+000  0.000000000000000E+000  0.000000000000000E+000        
  0.000000000000000E+000                                                        
   2091.00000000000       3.664000000000000E-003 -8.290000000000000E-004        
  0.000000000000000E+000  0.000000000000000E+000  0.000000000000000E+000        
  0.000000000000000E+000  0.000000000000000E+000  0.000000000000000E+000        
  0.000000000000000E+000                                                        
   590.900000000000       1.521800000000000E-002 -3.508000000000000E-003        
  0.000000000000000E+000  0.000000000000000E+000  0.000000000000000E+000        
  0.000000000000000E+000  0.000000000000000E+000  0.000000000000000E+000        
  0.000000000000000E+000                                                        
   192.300000000000       5.242300000000000E-002 -1.215600000000000E-002        
  0.000000000000000E+000  0.000000000000000E+000  0.000000000000000E+000        
  0.000000000000000E+000  0.000000000000000E+000  0.000000000000000E+000        
  0.000000000000000E+000                                                        
   69.3200000000000       0.145921000000000      -3.626100000000000E-002        
  0.000000000000000E+000  0.000000000000000E+000  0.000000000000000E+000        
  0.000000000000000E+000  0.000000000000000E+000  0.000000000000000E+000        
  0.000000000000000E+000                                                        
   26.9700000000000       0.305258000000000      -8.299200000000000E-002        
  0.000000000000000E+000  0.000000000000000E+000  0.000000000000000E+000        
  0.000000000000000E+000  0.000000000000000E+000  0.000000000000000E+000        
  0.000000000000000E+000                                                        
   11.1000000000000       0.398508000000000      -0.152090000000000             
  0.000000000000000E+000  0.000000000000000E+000  0.000000000000000E+000        
  0.000000000000000E+000  0.000000000000000E+000  0.000000000000000E+000        
  0.000000000000000E+000                                                        
   4.68200000000000       0.216980000000000      -0.115331000000000             
  0.000000000000000E+000  0.000000000000000E+000  0.000000000000000E+000        
  0.000000000000000E+000  0.000000000000000E+000  0.000000000000000E+000        
  0.000000000000000E+000                                                        
   1.42800000000000       1.759400000000000E-002  0.288979000000000             
   1.00000000000000       0.000000000000000E+000  0.000000000000000E+000        
  0.000000000000000E+000  0.000000000000000E+000  0.000000000000000E+000        
  0.000000000000000E+000                                                        
  0.554700000000000      -2.502000000000000E-003  0.586128000000000             
  0.000000000000000E+000   1.00000000000000       0.000000000000000E+000        
  0.000000000000000E+000  0.000000000000000E+000  0.000000000000000E+000        
  0.000000000000000E+000                                                        
  0.206700000000000       9.540000000000000E-004  0.277624000000000             
  0.000000000000000E+000  0.000000000000000E+000   1.00000000000000             
  0.000000000000000E+000  0.000000000000000E+000  0.000000000000000E+000        
  0.000000000000000E+000                                                        
   12.9740000000000       0.000000000000000E+000  0.000000000000000E+000        
  0.000000000000000E+000  0.000000000000000E+000  0.000000000000000E+000        
   1.00000000000000       0.000000000000000E+000  0.000000000000000E+000        
  0.000000000000000E+000                                                        
   34.9000000000000       0.000000000000000E+000  0.000000000000000E+000        
  0.000000000000000E+000  0.000000000000000E+000  0.000000000000000E+000        
  0.000000000000000E+000   1.00000000000000       0.000000000000000E+000        
  0.000000000000000E+000                                                        
   93.8810000000000       0.000000000000000E+000  0.000000000000000E+000        
  0.000000000000000E+000  0.000000000000000E+000  0.000000000000000E+000        
  0.000000000000000E+000  0.000000000000000E+000   1.00000000000000             
  0.000000000000000E+000                                                        
  6.959000000000000E-002  0.000000000000000E+000  0.000000000000000E+000        
  0.000000000000000E+000  0.000000000000000E+000  0.000000000000000E+000        
  0.000000000000000E+000  0.000000000000000E+000  0.000000000000000E+000        
   1.00000000000000                                                             
   10    8                                                                      
   63.4200000000000       6.044000000000000E-003  0.000000000000000E+000        
  0.000000000000000E+000  0.000000000000000E+000  0.000000000000000E+000        
  0.000000000000000E+000  0.000000000000000E+000  0.000000000000000E+000        
   14.6600000000000       4.179900000000000E-002  0.000000000000000E+000        
  0.000000000000000E+000  0.000000000000000E+000  0.000000000000000E+000        
  0.000000000000000E+000  0.000000000000000E+000  0.000000000000000E+000        
   4.45900000000000       0.161143000000000       0.000000000000000E+000        
  0.000000000000000E+000  0.000000000000000E+000  0.000000000000000E+000        
  0.000000000000000E+000  0.000000000000000E+000  0.000000000000000E+000        
   1.53100000000000       0.356731000000000        1.00000000000000             
  0.000000000000000E+000  0.000000000000000E+000  0.000000000000000E+000        
  0.000000000000000E+000  0.000000000000000E+000  0.000000000000000E+000        
  0.530200000000000       0.448309000000000       0.000000000000000E+000        
   1.00000000000000       0.000000000000000E+000  0.000000000000000E+000        
  0.000000000000000E+000  0.000000000000000E+000  0.000000000000000E+000        
  0.175000000000000       0.244940000000000       0.000000000000000E+000        
  0.000000000000000E+000   1.00000000000000       0.000000000000000E+000        
  0.000000000000000E+000  0.000000000000000E+000  0.000000000000000E+000        
   14.4750000000000       0.000000000000000E+000  0.000000000000000E+000        
  0.000000000000000E+000  0.000000000000000E+000   1.00000000000000             
  0.000000000000000E+000  0.000000000000000E+000  0.000000000000000E+000        
   42.7300000000000       0.000000000000000E+000  0.000000000000000E+000        
  0.000000000000000E+000  0.000000000000000E+000  0.000000000000000E+000        
   1.00000000000000       0.000000000000000E+000  0.000000000000000E+000        
   126.140000000000       0.000000000000000E+000  0.000000000000000E+000        
  0.000000000000000E+000  0.000000000000000E+000  0.000000000000000E+000        
  0.000000000000000E+000   1.00000000000000       0.000000000000000E+000        
  5.348000000000000E-002  0.000000000000000E+000  0.000000000000000E+000        
  0.000000000000000E+000  0.000000000000000E+000  0.000000000000000E+000        
  0.000000000000000E+000  0.000000000000000E+000   1.00000000000000             
    6    6                                                                      
   3.77500000000000        1.00000000000000       0.000000000000000E+000        
  0.000000000000000E+000  0.000000000000000E+000  0.000000000000000E+000        
  0.000000000000000E+000                                                        
   1.30000000000000       0.000000000000000E+000   1.00000000000000             
  0.000000000000000E+000  0.000000000000000E+000  0.000000000000000E+000        
  0.000000000000000E+000                                                        
  0.444000000000000       0.000000000000000E+000  0.000000000000000E+000        
   1.00000000000000       0.000000000000000E+000  0.000000000000000E+000        
  0.000000000000000E+000                                                        
   14.9270000000000       0.000000000000000E+000  0.000000000000000E+000        
  0.000000000000000E+000   1.00000000000000       0.000000000000000E+000        
  0.000000000000000E+000                                                        
   57.5440000000000       0.000000000000000E+000  0.000000000000000E+000        
  0.000000000000000E+000  0.000000000000000E+000   1.00000000000000             
  0.000000000000000E+000                                                        
  0.154000000000000       0.000000000000000E+000  0.000000000000000E+000        
  0.000000000000000E+000  0.000000000000000E+000  0.000000000000000E+000        
   1.00000000000000                                                             
    4    4                                                                      
   2.66600000000000        1.00000000000000       0.000000000000000E+000        
  0.000000000000000E+000  0.000000000000000E+000                                
  0.859000000000000       0.000000000000000E+000   1.00000000000000             
  0.000000000000000E+000  0.000000000000000E+000                                
   26.4830000000000       0.000000000000000E+000  0.000000000000000E+000        
   1.00000000000000       0.000000000000000E+000                                
  0.324000000000000       0.000000000000000E+000  0.000000000000000E+000        
  0.000000000000000E+000   1.00000000000000                                     
    2    2                                                                      
   1.84600000000000        1.00000000000000       0.000000000000000E+000        
  0.714000000000000       0.000000000000000E+000   1.00000000000000             
FINISH                                                                          
 
********************************************************************************
 ONE- AND TWO-ELECTRON INTEGRALS OVER SYMMETRY-ADAPTED AOS ARE CALCULATED.

  SPHERICAL HARMONICS ARE USED.
  
  INTEGRALS LESS THAN  0.10E-13 ARE NEGLECTED.

  NUCLEAR REPULSION ENERGY :   17.0512621111 A.U.
  @MOLECU-I, ONE ELECTRON INTEGRALS (CPU/WALL):        0.07/       0.09 SECONDS.
  @TWOEL-I,    4472482 INTEGRALS OF SYMMETRY TYPE  I I I I
  @TWOEL-I,   19288447 INTEGRALS OF SYMMETRY TYPE  I J I J
  @TWOEL-I,   10156772 INTEGRALS OF SYMMETRY TYPE  I I J J
  @TWOEL-I,   14267329 INTEGRALS OF SYMMETRY TYPE  I J K L
  @TWOEL-I, TOTAL NUMBER OF 2-E INTEGRALS   48185030.
  @MOLECU-I, TWO ELECTRON INTEGRALS (CPU/WALL):      233.80/      31.78 SECONDS.
 @CHECKOUT-I, Total execution time (CPU/WALL):      233.88/      31.89 seconds.

Running with 14 threads/proc

--executable xvmol finished with status     0 in       31.92 seconds (walltime).
 --invoking executable--
/nfs/workspaces/public/cfour_mpi/bin/xvmol2ja
 @GETMEM-I,  Allocated    3814 MB of main memory.
 @CHECKOUT-I, Total execution time (CPU/WALL):        0.27/       0.06 seconds.
--executable xvmol2ja finished with status     0 in        0.10 seconds (walltime).
 --invoking executable--
/nfs/workspaces/public/cfour_mpi/bin/xvprop
 @GETMEM-I,  Allocated    3814 MB of main memory.
   Property integrals will be calculated.
    --------------------------------------------------------------
                                   Property evaluated at 
    Property type                X             Y             Z
    --------------------------------------------------------------
    Dipole moment               ----          ----          ----  
    Quadrupole moment           ----          ----          ----  
    Octopole moment             ----          ----          ----  
    Relativisitic corr.         ----          ----          ----  
    Second moment            0.0000000     0.0000000     0.0000000
    Electron density         0.0000000     0.0000000     1.6889930
    Electron density         0.0000000     0.0000000    -1.1260479
    Field gradient           0.0000000     0.0000000     1.6889930
    Field gradient           0.0000000     0.0000000    -1.1260479
    Potential                0.0000000     0.0000000     1.6889930
    Potential                0.0000000     0.0000000    -1.1260479
    --------------------------------------------------------------
 @CHECKOUT-I, Total execution time (CPU/WALL):        1.52/       1.56 seconds.
--executable xvprop finished with status     0 in        1.58 seconds (walltime).
 --invoking executable--
/nfs/workspaces/public/cfour_mpi/bin/xvscf
  There are  218 functions in the AO basis.

  There are 4 irreducible representations.

       Irrep        # of functions
         1                 86
         2                 52
         3                 52
         4                 28


  Parameters for SCF calculation: 
        SCF reference function:  RHF  
  Maximum number of iterations:  150
     Full symmetry point group: CXv 
     Computational point group: C2v 
        Initial density matrix: MOREAD                 
     SCF convergence tolerance: 10**(-10)
  DIIS convergence acceleration:  ON
          Latest start for DIIS:   8
                     DIIS order:   6

  Memory information:    2523578 words required.
  Fock matrices are constructed from AO integral file.
 @GETMEM-I,  Allocated      19 MB of main memory.
  Initialization and symmetry analysis required      0.002 seconds.

  Adding electric field perturbation to one-electron Hamiltonian.
  Field direction     : Z
  Field strength      :  0.0002000 a.u.

  @INITGES-I, Occupancies from core Hamiltonian:

          Alpha population by irrep:   5    1    1    0
           Beta population by irrep:   5    1    1    0


 total no. of electrons in initial guess :  0.000000000000000E+000
  --------------------------------------------------------------------
  Iteration         Total Energy            Largest Density Difference
  --------------------------------------------------------------------
       0            17.051036996091426              0.0000000000D+00
   current occupation vector 
     5  1  1  0
     5  1  1  0
       1           -93.401394933459514              0.1752808092D+02
   current occupation vector 
     5  1  1  0
     5  1  1  0
       2           -98.244570216544616              0.1752804936D+02
   current occupation vector 
     5  1  1  0
     5  1  1  0
       3          -102.006280653691448              0.6178400269D+01
   current occupation vector 
     5  1  1  0
     5  1  1  0
       4           -97.021578927463850              0.6178284929D+01
   current occupation vector 
     5  1  1  0
     5  1  1  0
       5          -100.784370732384801              0.6742170811D+01
   current occupation vector 
     5  1  1  0
     5  1  1  0
       6           -96.007659281347713              0.6740741616D+01
   current occupation vector 
     5  1  1  0
     5  1  1  0
       7          -100.747378648076520              0.6812953602D+01
   current occupation vector 
     5  1  1  0
     5  1  1  0
       8           -95.968663095791953              0.6813142896D+01
   current occupation vector 
     5  1  1  0
     5  1  1  0
       9          -107.493459707006338              0.5439952343D+01
   current occupation vector 
     5  1  1  0
     5  1  1  0
      10          -109.504332183664914              0.9255240917D+00
   current occupation vector 
     5  1  1  0
     5  1  1  0
      11          -112.320204560011774              0.1544260813D+01
   current occupation vector 
     5  1  1  0
     5  1  1  0
      12          -112.596213915250132              0.5115377733D+00
   current occupation vector 
     5  1  1  0
     5  1  1  0
      13          -112.600918733606022              0.1255738280D+00
   current occupation vector 
     5  1  1  0
     5  1  1  0
      14          -112.602423906204024              0.5568893336D-01
   current occupation vector 
     5  1  1  0
     5  1  1  0
      15          -112.602527640845068              0.1558707519D-01
   current occupation vector 
     5  1  1  0
     5  1  1  0
      16          -112.602572400871622              0.1264921135D-01
   current occupation vector 
     5  1  1  0
     5  1  1  0
      17          -112.602582702273992              0.5729076629D-02
   current occupation vector 
     5  1  1  0
     5  1  1  0
      18          -112.602584355930730              0.3281360127D-02
   current occupation vector 
     5  1  1  0
     5  1  1  0
      19          -112.602584364759338              0.2444378921D-03
   current occupation vector 
     5  1  1  0
     5  1  1  0
      20          -112.602584365013229              0.1328293366D-04
   current occupation vector 
     5  1  1  0
     5  1  1  0
      21          -112.602584365018686              0.4507528827D-05
   current occupation vector 
     5  1  1  0
     5  1  1  0
      22          -112.602584365018629              0.4905972844D-06
   current occupation vector 
     5  1  1  0
     5  1  1  0
      23          -112.602584365018515              0.8312871680D-07
   current occupation vector 
     5  1  1  0
     5  1  1  0
      24          -112.602584365017918              0.2559524770D-07
   current occupation vector 
     5  1  1  0
     5  1  1  0
      25          -112.602584365020618              0.3102471391D-08
   current occupation vector 
     5  1  1  0
     5  1  1  0
      26          -112.602584365018942              0.9207581364D-09
   current occupation vector 
     5  1  1  0
     5  1  1  0
      27          -112.602584365018458              0.8360976356D-09
   current occupation vector 
     5  1  1  0
     5  1  1  0
      28          -112.602584365018544              0.1973603503D-09
   current occupation vector 
     5  1  1  0
     5  1  1  0

  SCF has converged.

 Density matrix saved to file den.dat
 total electron number:   13.9999999999998     
     E(SCF)=      -112.602584365018174              0.5105971201D-10

  Eigenvector printing suppressed.

 @PUTMOS-I, Writing converged MOs to NEWMOS. 
 @PUTMOS-I, Symmetry   1 Full Blocks 21 Partial Blocksize   2
 @PUTMOS-I, Symmetry   2 Full Blocks 13 Partial Blocksize   0
 @PUTMOS-I, Symmetry   3 Full Blocks 13 Partial Blocksize   0
 @PUTMOS-I, Symmetry   4 Full Blocks  7 Partial Blocksize   0
 @PUTFOCK-I, Writing converged Fock matrix to NEWFOCK. 
 @PUTFOCK-I, Symmetry   1 Full Blocks 21 Partial Blocksize   2
 @PUTFOCK-I, Symmetry   2 Full Blocks 13 Partial Blocksize   0
 @PUTFOCK-I, Symmetry   3 Full Blocks 13 Partial Blocksize   0
 @PUTFOCK-I, Symmetry   4 Full Blocks  7 Partial Blocksize   0


 
  ORBITAL EIGENVALUES (ALPHA)  (1H = 27.2113834 eV)

       MO #        E(hartree)               E(eV)           FULLSYM    COMPSYM
       ----   --------------------   --------------------   -------   ---------
    1     1         -20.6549573765        -562.0499642835     SG+        A1 (1)
    2     2         -11.4961653158        -312.8265620374     SG+        A1 (1)
    3     3          -1.3191597657         -35.8961621511     SG+        A1 (1)
    4     4          -0.7971515164         -21.6915955419     SG+        A1 (1)
    5     5          -0.5508741241         -14.9900469966     SG+        A1 (1)
    6    87          -0.5205651943         -14.1652990868      PI        B1 (2)
    7   139          -0.5205651943         -14.1652990868      PI        B2 (3)
  +++++++++++++++++++++++++++++++++++++++++++++++++++++++++++++++++++++++++++++
    8    88           0.0147403870           0.4011063224      PI        B1 (2)
    9   140           0.0147403870           0.4011063224      PI        B2 (3)
   10     6           0.0633740064           1.7244943866     SG+        A1 (1)
   11     7           0.0683207990           1.8591034570     SG+        A1 (1)
   12    89           0.0852991294           2.3211073150      PI        B1 (2)
   13   141           0.0852991294           2.3211073150      PI        B2 (3)
   14     8           0.1566821633           4.2635384187     SG+        A1 (1)
   15    90           0.1754278727           4.7736351035      PI        B1 (2)
   16   142           0.1754278727           4.7736351035      PI        B2 (3)
   17     9           0.2175045741           5.9186003564     SG+        A1 (1)
   18    10           0.2242790544           6.1029433377      DE        A1 (1)
   19   191           0.2242790544           6.1029433377      DE        A2 (4)
   20    91           0.2918587405           7.9418800865      PI        B1 (2)
   21   143           0.2918587405           7.9418800865      PI        B2 (3)
   22    11           0.2999063611           8.1608669748     SG+        A1 (1)
   23    12           0.3454591851           9.4004223361     SG+        A1 (1)
   24    92           0.4018370982          10.9345433439      PI        B1 (2)
   25   144           0.4018370982          10.9345433439      PI        B2 (3)
   26    13           0.4466980288          12.1552713257     SG+        A1 (1)
   27    14           0.5120274410          13.9329750088     SG+        A1 (1)
   28   192           0.5484513074          14.9241188017      DE        A2 (4)
   29    15           0.5484513074          14.9241188017      DE        A1 (1)
   30    93           0.6235998888          16.9690156627      PI        B1 (2)
   31   145           0.6235998888          16.9690156627      PI        B2 (3)
   32    16           0.7172287492          19.5167864799     SG+        A1 (1)
   33   146           0.7367401192          20.0477178489      PH        B2 (3)
   34    94           0.7367401192          20.0477178489      PH        B1 (2)
   35    17           0.7462336286          20.3060493746      DE        A1 (1)
   36   193           0.7462336286          20.3060493746      DE        A2 (4)
   37    95           0.7850447499          21.3621536770      PI        B1 (2)
   38   147           0.7850447500          21.3621536770      PI        B2 (3)
   39    18           0.8251681922          22.4539680467     SG+        A1 (1)
   40   194           0.8680271027          23.6202182924      DE        A2 (4)
   41    19           0.8680271027          23.6202182925      DE        A1 (1)
   42    20           0.8721091419          23.7312962273     SG+        A1 (1)
   43    96           0.8949402514          24.3525623019      PI        B1 (2)
   44   148           0.8949402514          24.3525623019      PI        B2 (3)
   45    97           1.0333599410          28.1191535438      PI        B1 (2)
   46   149           1.0333599410          28.1191535438      PI        B2 (3)
   47    21           1.1258858160          30.6369106026     SG+        A1 (1)
   48    22           1.3830914543          37.6358318399     SG+        A1 (1)
   49    98           1.4245100744          38.7628897911      PH        B1 (2)
   50   150           1.4245100744          38.7628897911      PH        B2 (3)
   51    99           1.5258461874          41.5203856136      PI        B1 (2)
   52   151           1.5258461874          41.5203856136      PI        B2 (3)
   53   195           1.5748209818          42.8530575225      DE        A2 (4)
   54    23           1.5748209818          42.8530575225      DE        A1 (1)
   55    24           1.6119595174          43.8636484530     SG+        A1 (1)
   56   100           1.6387285361          44.5920704833      PI        B1 (2)
   57   152           1.6387285361          44.5920704833      PI        B2 (3)
   58   196           1.6978497887          46.2008415552      DE        A2 (4)
   59    25           1.6978497887          46.2008415552      DE        A1 (1)
   60    26           1.9055534127          51.8527445027     SG+        A1 (1)
   61    27           1.9856430446          54.0320941824     SG+        A1 (1)
   62    28           2.0771681546          56.5226190409      PI        A1 (1)
   63   197           2.0771681546          56.5226190409      PI        A2 (4)
   64   101           2.0901914799          56.8770017388      PI        B1 (2)
   65   153           2.0901914799          56.8770017388      PI        B2 (3)
   66    29           2.1385341332          58.1924722124      DE        A1 (1)
   67   198           2.1385341332          58.1924722124      DE        A2 (4)
   68   154           2.2168601939          60.3238326794      PH        B2 (3)
   69   102           2.2168601939          60.3238326794      PH        B1 (2)
   70   103           2.2391930565          60.9315407665      PH        B1 (2)
   71   155           2.2391930565          60.9315407665      PH        B2 (3)
   72   104           2.2450299924          61.0903718685      PI        B1 (2)
   73   156           2.2450299924          61.0903718685      PI        B2 (3)
   74    30           2.2456474334          61.1071732910     SG+        A1 (1)
   75   199           2.3007420082          62.6063728901      DE        A2 (4)
   76    31           2.3007420082          62.6063728901      DE        A1 (1)
   77    32           2.4550906062          66.8064117670     SG+        A1 (1)
   78   105           2.5201970545          68.5780482937      PI        B1 (2)
   79   157           2.5201970545          68.5780482937      PI        B2 (3)
   80    33           2.6042104072          70.8641678448     SG+        A1 (1)
   81   106           2.6077246220          70.9597944912      PI        B1 (2)
   82   158           2.6077246220          70.9597944912      PI        B2 (3)
   83   200           2.7119239281          73.7952017579      DE        A2 (4)
   84    34           2.7119239281          73.7952017580      DE        A1 (1)
   85    35           3.0885647781          84.0441203330     SG+        A1 (1)
   86   107           3.4873275222          94.8950062471      PI        B1 (2)
   87   159           3.4873275222          94.8950062471      PI        B2 (3)
   88   201           3.7030360185         100.7647328421      PI        A2 (4)
   89    36           3.7030360185         100.7647328421      PI        A1 (1)
   90    37           3.9056208214         106.2773455862     SG+        A1 (1)
   91   108           3.9665068204         107.9341378486      PH        B1 (2)
   92   160           3.9665068204         107.9341378486      PH        B2 (3)
   93   161           4.1309424830         112.4086597087      PH        B2 (3)
   94   109           4.1309424830         112.4086597087      PH        B1 (2)
   95   110           4.1616114613         113.2432050352      PI        B1 (2)
   96   162           4.1616114613         113.2432050352      PI        B2 (3)
   97    38           4.1806546264         113.7613959024     SG+        A1 (1)
   98   202           4.2128277224         114.6368703526      DE        A2 (4)
   99    39           4.2128277224         114.6368703526      DE        A1 (1)
  100   203           4.2766185971         116.3727083000      DE        A2 (4)
  101    40           4.2766185971         116.3727083000      DE        A1 (1)
  102    41           4.4396378807         120.8086885302     SG+        A1 (1)
  103   111           4.6163585436         125.6175022418      PI        B1 (2)
  104   163           4.6163585436         125.6175022418      PI        B2 (3)
  105    42           4.7694476576         129.7832688163     SG+        A1 (1)
  106   204           4.7781741692         130.0207292704      DE        A2 (4)
  107    43           4.7781741692         130.0207292705      DE        A1 (1)
  108   112           5.1749016468         140.8162327678      PI        B1 (2)
  109   164           5.1749016468         140.8162327679      PI        B2 (3)
  110    44           5.3448346293         145.4403443084     SG+        A1 (1)
  111   113           5.3770400815         146.3166992160      PI        B1 (2)
  112   165           5.3770400815         146.3166992161      PI        B2 (3)
  113    45           5.8434509048         159.0083829493      PI        A1 (1)
  114   205           5.8434509048         159.0083829493      PI        A2 (4)
  115   166           5.9227736180         161.1668637119      PH        B2 (3)
  116   114           5.9227736180         161.1668637119      PH        B1 (2)
  117    46           6.1019332599         166.0420454163     SG+        A1 (1)
  118   206           6.1509147990         167.3749008568      DE        A2 (4)
  119    47           6.1509147990         167.3749008568      DE        A1 (1)
  120   115           6.1696149544         167.8837579549      PI        B1 (2)
  121   167           6.1696149544         167.8837579549      PI        B2 (3)
  122    48           6.2297589321         169.5203587903     SG+        A1 (1)
  123   168           6.3734667861         173.4308483041      PH        B2 (3)
  124   116           6.3734667861         173.4308483041      PH        B1 (2)
  125    49           6.4175418875         174.6301927854      DE        A1 (1)
  126   207           6.4175418875         174.6301927854      DE        A2 (4)
  127   208           6.5080361214         177.0926660805      DE        A2 (4)
  128    50           6.5080361214         177.0926660805      DE        A1 (1)
  129   117           6.8785174080         187.1739744140      PI        B1 (2)
  130   169           6.8785174080         187.1739744140      PI        B2 (3)
  131    51           7.1635777035         194.9308594054     SG+        A1 (1)
  132   118           7.4731268788         203.3541206952      PI        B1 (2)
  133   170           7.4731268788         203.3541206952      PI        B2 (3)
  134    52           8.1150439547         220.8215723589     SG+        A1 (1)
  135    53           9.6594175329         262.8461139084     SG+        A1 (1)
  136   171           9.8564953056         268.2088727399      PI        B2 (3)
  137   119           9.8564953056         268.2088727400      PI        B1 (2)
  138    54          10.6397353463         289.5219177828      PI        A1 (1)
  139   209          10.6397353463         289.5219177828      PI        A2 (4)
  140    55          10.7134756773         291.5284942015     SG+        A1 (1)
  141   120          10.7506333517         292.5396059254      PH        B1 (2)
  142   172          10.7506333517         292.5396059254      PH        B2 (3)
  143   210          10.9846646962         298.9079225683      DE        A2 (4)
  144    56          10.9846646962         298.9079225683      DE        A1 (1)
  145   121          10.9959411823         299.2147713542      PI        B1 (2)
  146   173          10.9959411823         299.2147713542      PI        B2 (3)
  147    57          11.2211402824         305.3427504108     SG+        A1 (1)
  148   122          11.8791207424         323.2473089751      PH        B1 (2)
  149   174          11.8791207424         323.2473089751      PH        B2 (3)
  150   211          12.0206754252         327.0992077217      DE        A2 (4)
  151    58          12.0206754252         327.0992077220      DE        A1 (1)
  152   175          12.4967522870         340.0539177362      PI        B2 (3)
  153   123          12.4967522870         340.0539177362      PI        B1 (2)
  154    59          12.7340109023         346.5100528832     SG+        A1 (1)
  155   212          12.7409802615         346.6996987867      DE        A2 (4)
  156    60          12.7409802615         346.6996987868      DE        A1 (1)
  157   124          13.0873194272         356.1240666125      PI        B1 (2)
  158   176          13.0873194272         356.1240666126      PI        B2 (3)
  159    61          13.7282993250         373.5660163619     SG+        A1 (1)
  160    62          17.4282743517         474.2474553848     SG+        A1 (1)
  161   125          18.7952510018         511.4447811104      PI        B1 (2)
  162   177          18.7952510019         511.4447811107      PI        B2 (3)
  163    63          19.9941857398         544.0694539372     SG+        A1 (1)
  164    64          26.2920310013         715.4425359400      DE        A1 (1)
  165   213          26.2920310013         715.4425359400      DE        A2 (4)
  166   126          26.6569479551         725.3724310792      PI        B1 (2)
  167   178          26.6569479551         725.3724310792      PI        B2 (3)
  168    65          27.1474453201         738.7195429358     SG+        A1 (1)
  169   179          33.5268105760         912.3108967623      PI        B2 (3)
  170   127          33.5268105760         912.3108967630      PI        B1 (2)
  171    66          34.3307006767         934.1858585036     SG+        A1 (1)
  172    67          35.7734764552         973.4457833737     SG+        A1 (1)
  173   214          47.0740176936        1280.9491436398      DE        A2 (4)
  174    68          47.0740176936        1280.9491436398      DE        A1 (1)
  175   128          47.2571775940        1285.9331779113      PI        B1 (2)
  176   180          47.2571775940        1285.9331779114      PI        B2 (3)
  177    69          47.6334473681        1296.1719989963     SG+        A1 (1)
  178    70          63.8460598684        1737.3396136590     SG+        A1 (1)
  179   129          66.3649384550        1805.8817846153      PI        B1 (2)
  180   181          66.3649384550        1805.8817846155      PI        B2 (3)
  181    71          67.2284048062        1829.3778985525     SG+        A1 (1)
  182   182          98.5341134637        2681.2495394391      PH        B2 (3)
  183   130          98.5341134637        2681.2495394392      PH        B1 (2)
  184   215          98.5474988647        2681.6137747178      DE        A2 (4)
  185    72          98.5474988647        2681.6137747178      DE        A1 (1)
  186   131          98.5625192724        2682.0225007912      PI        B1 (2)
  187   183          98.5625192724        2682.0225007912      PI        B2 (3)
  188    73          98.5773274888        2682.4254528438     SG+        A1 (1)
  189   184         103.2990792138        2810.9108493534      PH        B2 (3)
  190   132         103.2990792138        2810.9108493534      PH        B1 (2)
  191    74         103.3068612288        2811.1226087461      DE        A1 (1)
  192   216         103.3068612288        2811.1226087480      DE        A2 (4)
  193   185         103.3451132256        2812.1634984971      PI        B2 (3)
  194   133         103.3451132256        2812.1634984971      PI        B1 (2)
  195    75         103.3481655901        2812.2465575584     SG+        A1 (1)
  196    76         114.9899815522        3129.0364751756      DE        A1 (1)
  197   217         114.9899815522        3129.0364751756      DE        A2 (4)
  198   186         115.1656581106        3133.8168773607      PI        B2 (3)
  199   134         115.1656581106        3133.8168773608      PI        B1 (2)
  200    77         115.4259903769        3140.9008784707     SG+        A1 (1)
  201   187         116.8147919991        3178.6920918793      PI        B2 (3)
  202   135         116.8147919992        3178.6920918802      PI        B1 (2)
  203    78         117.4672708504        3196.4469440628     SG+        A1 (1)
  204    79         122.0033283038        3319.8793425502     SG+        A1 (1)
  205   218         198.5519358473        5402.8728511525      DE        A2 (4)
  206    80         198.5519358473        5402.8728511527      DE        A1 (1)
  207   136         198.6515408508        5405.5832410922      PI        B1 (2)
  208   188         198.6515408508        5405.5832410924      PI        B2 (3)
  209    81         198.8469675102        5410.9010708462     SG+        A1 (1)
  210    82         216.3755386466        5887.8777404942     SG+        A1 (1)
  211   137         224.8381317005        6118.1566046418      PI        B1 (2)
  212   189         224.8381317005        6118.1566046420      PI        B2 (3)
  213    83         225.5108017468        6136.4608871749     SG+        A1 (1)
  214   190         395.3188405456       10757.1725353293      PI        B2 (3)
  215   138         395.3188405456       10757.1725353300      PI        B1 (2)
  216    84         395.8643836694       10772.0175184319     SG+        A1 (1)
  217    85         508.6943921136       13842.2781372322     SG+        A1 (1)
  218    86         895.1996674693       24359.6213710585     SG+        A1 (1)


  VSCF finished.

 @CHECKOUT-I, Total execution time (CPU/WALL):       56.68/      14.36 seconds.
--executable xvscf finished with status     0 in       14.41 seconds (walltime).
 --invoking executable--
/nfs/workspaces/public/cfour_mpi/bin/xvtran
 @GETMEM-I,  Allocated    3814 MB of main memory.
  Full RHF integral transformation
  Transformation of IIII integrals :
  1 pass through the AO integral file was required.
     4472482 AO integrals were read.
     8672118 MO integrals were written to HF2.
  Transformation of IIJJ integrals :
  1 pass through the AO integral file was required.
    10156772 AO integrals were read.
    14436774 MO integrals were written to HF2.
  Transformation of IJIJ integrals :
  1 pass through the AO integral file was required.
    19288447 AO integrals were read.
    26860032 MO integrals were written to HF2.
  Transformation of IJKL integrals :
  1 pass through the AO integral file was required.
    14267329 AO integrals were read.
    18161940 MO integrals were written to HF2.
  Summary of active molecular orbitals: 
------------------------------------------------------------------------
 
  Index      Eigenvalue    Symmetry    Index      Eigenvalue    Symmetry
------------------------------------------------------------------------
     1       -20.6549574        1       110         4.1309425        2
     2       -11.4961653        1       111         4.1616115        2
     3        -1.3191598        1       112         4.6163585        2
     4        -0.7971515        1       113         5.1749016        2
     5        -0.5508741        1       114         5.3770401        2
     6        -0.5205652        2       115         5.9227736        2
     7        -0.5205652        3       116         6.1696150        2
     8         0.0633740        1       117         6.3734668        2
     9         0.0683208        1       118         6.8785174        2
    10         0.1566822        1       119         7.4731269        2
    11         0.2175046        1       120         9.8564953        2
    12         0.2242791        1       121        10.7506334        2
    13         0.2999064        1       122        10.9959412        2
    14         0.3454592        1       123        11.8791207        2
    15         0.4466980        1       124        12.4967523        2
    16         0.5120274        1       125        13.0873194        2
    17         0.5484513        1       126        18.7952510        2
    18         0.7172287        1       127        26.6569480        2
    19         0.7462336        1       128        33.5268106        2
    20         0.8251682        1       129        47.2571776        2
    21         0.8680271        1       130        66.3649385        2
    22         0.8721091        1       131        98.5341135        2
    23         1.1258858        1       132        98.5625193        2
    24         1.3830915        1       133       103.2990792        2
    25         1.5748210        1       134       103.3451132        2
    26         1.6119595        1       135       115.1656581        2
    27         1.6978498        1       136       116.8147920        2
    28         1.9055534        1       137       198.6515409        2
    29         1.9856430        1       138       224.8381317        2
    30         2.0771682        1       139       395.3188405        2
    31         2.1385341        1       140         0.0147404        3
    32         2.2456474        1       141         0.0852991        3
    33         2.3007420        1       142         0.1754279        3
    34         2.4550906        1       143         0.2918587        3
    35         2.6042104        1       144         0.4018371        3
    36         2.7119239        1       145         0.6235999        3
    37         3.0885648        1       146         0.7367401        3
    38         3.7030360        1       147         0.7850447        3
    39         3.9056208        1       148         0.8949403        3
    40         4.1806546        1       149         1.0333599        3
    41         4.2128277        1       150         1.4245101        3
    42         4.2766186        1       151         1.5258462        3
    43         4.4396379        1       152         1.6387285        3
    44         4.7694477        1       153         2.0901915        3
    45         4.7781742        1       154         2.2168602        3
    46         5.3448346        1       155         2.2391931        3
    47         5.8434509        1       156         2.2450300        3
    48         6.1019333        1       157         2.5201971        3
    49         6.1509148        1       158         2.6077246        3
    50         6.2297589        1       159         3.4873275        3
    51         6.4175419        1       160         3.9665068        3
    52         6.5080361        1       161         4.1309425        3
    53         7.1635777        1       162         4.1616115        3
    54         8.1150440        1       163         4.6163585        3
    55         9.6594175        1       164         5.1749016        3
    56        10.6397353        1       165         5.3770401        3
    57        10.7134757        1       166         5.9227736        3
    58        10.9846647        1       167         6.1696150        3
    59        11.2211403        1       168         6.3734668        3
    60        12.0206754        1       169         6.8785174        3
    61        12.7340109        1       170         7.4731269        3
    62        12.7409803        1       171         9.8564953        3
    63        13.7282993        1       172        10.7506334        3
    64        17.4282744        1       173        10.9959412        3
    65        19.9941857        1       174        11.8791207        3
    66        26.2920310        1       175        12.4967523        3
    67        27.1474453        1       176        13.0873194        3
    68        34.3307007        1       177        18.7952510        3
    69        35.7734765        1       178        26.6569480        3
    70        47.0740177        1       179        33.5268106        3
    71        47.6334474        1       180        47.2571776        3
    72        63.8460599        1       181        66.3649385        3
    73        67.2284048        1       182        98.5341135        3
    74        98.5474989        1       183        98.5625193        3
    75        98.5773275        1       184       103.2990792        3
    76       103.3068612        1       185       103.3451132        3
    77       103.3481656        1       186       115.1656581        3
    78       114.9899816        1       187       116.8147920        3
    79       115.4259904        1       188       198.6515409        3
    80       117.4672709        1       189       224.8381317        3
    81       122.0033283        1       190       395.3188405        3
    82       198.5519358        1       191         0.2242791        4
    83       198.8469675        1       192         0.5484513        4
    84       216.3755386        1       193         0.7462336        4
    85       225.5108017        1       194         0.8680271        4
    86       395.8643837        1       195         1.5748210        4
    87       508.6943921        1       196         1.6978498        4
    88       895.1996675        1       197         2.0771682        4
    89         0.0147404        2       198         2.1385341        4
    90         0.0852991        2       199         2.3007420        4
    91         0.1754279        2       200         2.7119239        4
    92         0.2918587        2       201         3.7030360        4
    93         0.4018371        2       202         4.2128277        4
    94         0.6235999        2       203         4.2766186        4
    95         0.7367401        2       204         4.7781742        4
    96         0.7850447        2       205         5.8434509        4
    97         0.8949403        2       206         6.1509148        4
    98         1.0333599        2       207         6.4175419        4
    99         1.4245101        2       208         6.5080361        4
   100         1.5258462        2       209        10.6397353        4
   101         1.6387285        2       210        10.9846647        4
   102         2.0901915        2       211        12.0206754        4
   103         2.2168602        2       212        12.7409803        4
   104         2.2391931        2       213        26.2920310        4
   105         2.2450300        2       214        47.0740177        4
   106         2.5201971        2       215        98.5474989        4
   107         2.6077246        2       216       103.3068612        4
   108         3.4873275        2       217       114.9899816        4
   109         3.9665068        2       218       198.5519358        4
------------------------------------------------------------------------
  -20.6549573765313       -11.4961653157792       -1.31915976572765     
 -0.797151516444626      -0.550874124119387      -0.520565194299100     
 -0.520565194299094       6.337400643294815E-002  6.832079904319048E-002
  0.156682163344934       0.217504574075661       0.224279054392669     
  0.299906361054947       0.345459185148579       0.446698028798323     
  0.512027441017284       0.548451307393894       0.717228749196813     
  0.746233628629993       0.825168192172085       0.868027102674229     
  0.872109141915261        1.12588581595536        1.38309145428892     
   1.57482098181403        1.61195951739257        1.69784978867514     
   1.90555341272058        1.98564304461051        2.07716815459351     
   2.13853413319733        2.24564743338335        2.30074200821701     
   2.45509060619694        2.60421040720619        2.71192392805776     
   3.08856477811578        3.70303601845331        3.90562082140191     
   4.18065462641691        4.21282772240893        4.27661859705423     
   4.43963788074645        4.76944765756920        4.77817416921475     
   5.34483462933490        5.84345090479053        6.10193325989818     
   6.15091479901929        6.22975893207542        6.41754188746585     
   6.50803612140225        7.16357770349147        8.11504395468780     
   9.65941753289891        10.6397353463022        10.7134756772955     
   10.9846646961839        11.2211402824450        12.0206754251966     
[...]
 Convergence information after    14 iterations: 
 Largest element of residual vector :  0.12817459E-05.
 Largest element of DIIS residual   :  0.87549556E-06.
 Convergence information after    15 iterations: 
 Largest element of residual vector :  0.98450643E-06.
 Largest element of DIIS residual   :  0.71282455E-06.
 Convergence information after    16 iterations: 
 Largest element of residual vector :  0.52553042E-06.
 Largest element of DIIS residual   :  0.25288073E-06.
 Convergence information after    17 iterations: 
 Largest element of residual vector :  0.27083346E-06.
 Largest element of DIIS residual   :  0.91077294E-07.
 Perturbed amplitude equations converged in    17 iterations.
  Dominant contributions to perturbed wavefunction:
    7    7  140   28   0.2317090031 ABAB
    7    7   28  140   0.2317090031 ABAB
    7    7  140   39  -0.2203628309 ABAB
    7    7   39  140  -0.2203628309 ABAB
    7    7  140   44  -0.1958049827 ABAB
    7    7   44  140  -0.1958049827 ABAB
    7    7  140   22  -0.1955760386 ABAB
    7    7   22  140  -0.1955760386 ABAB
    7    7  140   54   0.1603790417 ABAB
    7    7   54  140   0.1603790417 ABAB
    7    7  140   29  -0.1514569166 ABAB
    7    7   29  140  -0.1514569166 ABAB
    7    7  140   57   0.1504605971 ABAB
    7    7   57  140   0.1504605971 ABAB
    7    6   28   89   0.1454137529 ABAB
    6    7   89   28   0.1454137529 ABAB
    7    0   35    0  -0.1446202741 AA  
    7    6   39   89  -0.1391909919 ABAB
    6    7   89   39  -0.1391909919 ABAB
    7    7  140   24  -0.1330952441 ABAB
  norm of converged amps    1.78255271522544     
 Starting iterative solution of the perturbed Lambda equations.
 The DIIS procedure is used to accelerate convergence.
 Convergence criterion is 10**(-7).
 Maximum number of iterations is 100.
 Convergence information after     1 iterations: 
 Largest element of residual vector :  0.72743892E-01.
 Largest element of DIIS residual   :  0.72743892E-01.
 Convergence information after     2 iterations: 
 Largest element of residual vector :  0.13239582E-01.
 Largest element of DIIS residual   :  0.98165383E-02.
 Convergence information after     3 iterations: 
 Largest element of residual vector : -0.63522865E-02.
 Largest element of DIIS residual   : -0.59384744E-02.
 Convergence information after     4 iterations: 
 Largest element of residual vector : -0.38863407E-02.
 Largest element of DIIS residual   : -0.34530747E-02.
 Convergence information after     5 iterations: 
 Largest element of residual vector : -0.30639955E-02.
 Largest element of DIIS residual   : -0.21593172E-02.
 Convergence information after     6 iterations: 
 Largest element of residual vector : -0.14124976E-02.
 Largest element of DIIS residual   : -0.62566801E-03.
 Convergence information after     7 iterations: 
 Largest element of residual vector : -0.63198429E-03.
 Largest element of DIIS residual   : -0.26910186E-03.
 Convergence information after     8 iterations: 
 Largest element of residual vector : -0.17867020E-03.
 Largest element of DIIS residual   : -0.11843803E-03.
 Convergence information after     9 iterations: 
 Largest element of residual vector : -0.72627005E-04.
 Largest element of DIIS residual   : -0.29685896E-04.
 Convergence information after    10 iterations: 
 Largest element of residual vector : -0.24479104E-04.
 Largest element of DIIS residual   : -0.11074580E-04.
 Convergence information after    11 iterations: 
 Largest element of residual vector : -0.50638540E-05.
 Largest element of DIIS residual   : -0.35558579E-05.
 Convergence information after    12 iterations: 
 Largest element of residual vector : -0.20538886E-05.
 Largest element of DIIS residual   : -0.14432904E-05.
 Convergence information after    13 iterations: 
 Largest element of residual vector : -0.13492901E-05.
 Largest element of DIIS residual   :  0.13092298E-05.
 Convergence information after    14 iterations: 
 Largest element of residual vector :  0.81148625E-06.
 Largest element of DIIS residual   :  0.61182039E-06.
 Convergence information after    15 iterations: 
 Largest element of residual vector :  0.66399283E-06.
 Largest element of DIIS residual   :  0.50808795E-06.
 Convergence information after    16 iterations: 
 Largest element of residual vector :  0.36568566E-06.
 Largest element of DIIS residual   :  0.20675558E-06.
 Convergence information after    17 iterations: 
 Largest element of residual vector :  0.20222857E-06.
 Largest element of DIIS residual   :  0.82098205E-07.
 Perturbed Lambda equations converged in    17 iterations.
  Dominant contributions to perturbed wavefunction:
    7    7  140   28   0.2025383739 ABAB
    7    7   28  140   0.2025383739 ABAB
    7    7  140   39  -0.1892361524 ABAB
    7    7   39  140  -0.1892361524 ABAB
    7    7  140   22  -0.1691121445 ABAB
    7    7   22  140  -0.1691121445 ABAB
    7    7  140   44  -0.1690294234 ABAB
    7    7   44  140  -0.1690294234 ABAB
    7    7  140   54   0.1403054328 ABAB
    7    7   54  140   0.1403054328 ABAB
    7    7  140   57   0.1288460291 ABAB
    7    7   57  140   0.1288460291 ABAB
    7    7  140   29  -0.1283323378 ABAB
    7    7   29  140  -0.1283323378 ABAB
    7    6   28   89   0.1250216865 ABAB
    6    7   89   28   0.1250216865 ABAB
    7    6   39   89  -0.1177029469 ABAB
    6    7   89   39  -0.1177029469 ABAB
    7    7  140   24  -0.1111168319 ABAB
    7    7   24  140  -0.1111168319 ABAB
        The DBOC first-order density matrix is being calculated 
             (Symmetry block 3, perturbation   2)
 term   3.43622027235388     
 final tnorm  0.826606238492470     
  norm contr. I: |<0|L dT/dx|0>|^2   0.000000000000000E+000
  norm contr. II: <0|[nabla(1+L)e-T][nabla e^T]|0>   3.43622027235388     
  total norm contribution   3.43622027235388     
 oo  7.283423298237473E-003
 vv  -22.8662143077254     
 vo  6.654216281175571E-002
  Correlated perturbed 1-el contribution to DBOC  -22.7923887216154       cm**-1
  SUM_I |dc_I/dx|^2 contribution to DBOC   11.4955270429188       cm**-1
 
 
  The total diagonal Born-Oppenheimer correction (DBOC) is:      0.0038690007 a.u.
  The total diagonal Born-Oppenheimer correction (DBOC) is:        849.147493 cm-1
 
 Total CC energy including DBOC  -113.135132128631     
 First-order density matrix is being calculated  (Symmetry block 3, perturbation   2)
 Calculation of the contributions of <pq||rs> to dI(i,j)/dx required   3.3 seconds.
 Calculation of the contributions of <pq||rs> to dI(a,b)/dx required  16.9 seconds.
 Calculation of the contributions of <pq||rs> to dI(i,a)/dx required   9.6 seconds.
 First-order Z-vector equations are solved for 1 perturbation.
 Convergence reached after  19 iterations.
        U*G(pq,rs) contribution is being calculated
             (Symmetry block 3, perturbation   2)

 CCSD contribution to force constants 

        0.0000000000        0.0000000000        0.0000000000
        0.0000000000        0.0000000000        0.0000000000
        0.0000000000        0.0000000000        0.0000000000
        0.0000000000        0.0000000000        0.0000000000
        0.0000000000        0.0000000000        0.0000000000
        0.0000000000        0.0000000000        0.0000000000
        0.0000000000        0.0000000000        0.0000000000
        0.0000000000        0.0000000000        0.0000000000
        0.0000000000        0.0000000000        0.0000000000
        0.0000000000        0.0000000000        0.0000000000
        0.0000000000        0.0000000000        0.0000000000
        0.0000000000       -1.7672814102        1.7672814102

 CCSD contribution to dipole derivatives 

        0.0000000000        0.0000000000        0.0000000000
        0.0000000000        0.0000000000        0.0000000000
        0.0000000000        0.0000000000        0.0000000000
        0.0000000000        0.0000000000       -0.0562817242
        0.0000000000        0.0000000000        0.0000000000
        0.0000000000        0.0000000000        0.0000000000
 @CHECKOUT-I, Total execution time (CPU/WALL):     1311.31/     526.62 seconds.
--executable xsdcc finished with status     0 in      526.89 seconds (walltime).
 --invoking executable--
/nfs/workspaces/public/cfour_mpi/bin/xanti
 @GETMEM-I,  Allocated    3814 MB of main memory.
 CCSD MO derivative gammas will be sorted to Mulliken order.
 @CHECKOUT-I, Total execution time (CPU/WALL):       12.89/      18.95 seconds.
--executable xanti finished with status     0 in       19.11 seconds (walltime).
 --invoking executable--
/nfs/workspaces/public/cfour_mpi/bin/xbcktrn
 @GETMEM-I,  Allocated    3814 MB of main memory.
 CCSD MO derivative gammas will be transformed to the AO basis.
 @CHECKOUT-I, Total execution time (CPU/WALL):       25.00/      11.81 seconds.
--executable xbcktrn finished with status     0 in       11.88 seconds (walltime).
 --invoking executable--
/nfs/workspaces/public/cfour_mpi/bin/xvdint
 @GETMEM-I,  Allocated    3814 MB of main memory.
 One- and two-electron integral derivatives are calculated
 for RHF-CC/MBPT hessians and dipole derivatives.
 Spherical gaussians are used.
  magnet F F
                    8722  records have been written to the Sort file.
  Total length of Sort file :             178609116  words.
 Evaluation of 2el integral derivatives

                      Two-electron integral gradient
                      ------------------------------

                         C #1 z     0.0000000000
                         O #2 z     0.0000000000


 C #1       0.0000000000            0.0209531197            0.0000000000
 O #2       0.0000000000           -0.0209531197            0.0000000000


 Evaluation of 2e integral derivatives required  355.74 seconds.
  contribution to Hessian
        0.0000000000        0.0000000000        0.0000000000
        0.0000000000        0.0209531197       -0.0209531197
 @CHECKOUT-I, Total execution time (CPU/WALL):      355.72/      71.53 seconds.
--executable xvdint finished with status     0 in       71.69 seconds (walltime).
 --invoking executable--
/nfs/workspaces/public/cfour_mpi/bin/xanti
 @GETMEM-I,  Allocated    3814 MB of main memory.
 CCSD MO gammas will be sorted to Mulliken order.
 @CHECKOUT-I, Total execution time (CPU/WALL):       17.61/      53.01 seconds.
--executable xanti finished with status     0 in       53.60 seconds (walltime).
 --invoking executable--
/nfs/workspaces/public/cfour_mpi/bin/xbcktrn
 @GETMEM-I,  Allocated    3814 MB of main memory.
 CCSD MO gammas will be transformed to the AO basis.
 @CHECKOUT-I, Total execution time (CPU/WALL):       41.49/      16.80 seconds.
--executable xbcktrn finished with status     0 in       16.88 seconds (walltime).
 --invoking executable--
/nfs/workspaces/public/cfour_mpi/bin/xvdint
 @GETMEM-I,  Allocated    3814 MB of main memory.
 One- and two-electron integral derivatives are calculated
 for RHF-CC/MBPT hessians and dipole derivatives.
 Spherical gaussians are used.
  magnet F F

                     Kinetic energy integral gradient
                     --------------------------------

                         C #1 z    -0.6710900269
                         O #2 z     0.6710900269


 C #1       0.0000000000            0.0000000000           -0.6710900269
 O #2       0.0000000000            0.0000000000            0.6710900269



                   Nuclear attraction integral gradient
                   ------------------------------------

                         C #1 z    15.4337424361
                         O #2 z   -15.4337424361


 C #1       0.0000000000            0.0000000000           15.4337424361
 O #2       0.0000000000            0.0000000000          -15.4337424361



                      Reorthonormalization gradient
                      -----------------------------

                         C #1 z     0.0000000000
                         O #2 z     0.0000000000


 C #1       0.0000000000            0.0000000000            0.0000000000
 O #2       0.0000000000            0.0000000000            0.0000000000



                     Kinetic energy integral Hessian
                     -------------------------------


           Symmetry 1

           C #1 z      O #2 z

 C #1 z    0.693670
 O #2 z   -0.693670    0.693670


           Symmetry 2

           C #1 x      O #2 x

 C #1 x   -0.569425
 O #2 x    0.569425   -0.569425


           Symmetry 3

           C #1 y      O #2 y

 C #1 y   -0.569425
 O #2 y    0.569425   -0.569425




           C #1 x      C #1 y      C #1 z      O #2 x      O #2 y      O #2 z

 C #1 x   -0.569425
 C #1 y    0.000000   -0.569425
 C #1 z    0.000000    0.000000    0.693670

 O #2 x    0.569425    0.000000    0.000000   -0.569425
 O #2 y    0.000000    0.569425    0.000000    0.000000   -0.569425
 O #2 z    0.000000    0.000000   -0.693670    0.000000    0.000000    0.693670




                   Nuclear attraction integral Hessian
                   -----------------------------------


           Symmetry 1

           C #1 z      O #2 z

 C #1 z   -9.524320
 O #2 z    9.524320   -9.524320


           Symmetry 2

           C #1 x      O #2 x

 C #1 x    9.125344
 O #2 x   -9.125344    9.125344


           Symmetry 3

           C #1 y      O #2 y

 C #1 y    9.125344
 O #2 y   -9.125344    9.125344




           C #1 x      C #1 y      C #1 z      O #2 x      O #2 y      O #2 z

 C #1 x    9.125344
 C #1 y    0.000000    9.125344
 C #1 z    0.000000    0.000000   -9.524320

 O #2 x   -9.125344    0.000000    0.000000    9.125344
 O #2 y    0.000000   -9.125344    0.000000    0.000000    9.125344
 O #2 z    0.000000    0.000000    9.524320    0.000000    0.000000   -9.524320




                Highest order reorthonormalization Hessian
                ------------------------------------------


           Symmetry 1

           C #1 z      O #2 z

 C #1 z    0.000000
 O #2 z    0.000000    0.000000


           Symmetry 2

           C #1 x      O #2 x

 C #1 x    0.000000
 O #2 x    0.000000    0.000000


           Symmetry 3

           C #1 y      O #2 y

 C #1 y    0.000000
 O #2 y    0.000000    0.000000




           C #1 x      C #1 y      C #1 z      O #2 x      O #2 y      O #2 z




                Electronic contributions to dipole moment
                -----------------------------------------

                               au             Debye

                    z     -0.74290007     -1.88826395

  Conversion factor used: 1 a.u. =   2.54174691 Debye 



   Electronic contributions to static part of dipole moment derivatives
   --------------------------------------------------------------------


                     Total dipole moment derivatives
                     -------------------------------


           Symmetry 1
                              Ez

               C #1 z    -5.61185348
               O #2 z    -8.38814652

           Symmetry 2
                              Ex

               C #1 x    -5.67009747
               O #2 x    -8.32990253

           Symmetry 3
                              Ey

               C #1 y    -5.67009747
               O #2 y    -8.32990253



                       Ex          Ey          Ez

      C #1    x   -5.670097    0.000000    0.000000
      C #1    y    0.000000   -5.670097    0.000000
      C #1    z    0.000000    0.000000   -5.611853

      O #2    x   -8.329903    0.000000    0.000000
      O #2    y    0.000000   -8.329903    0.000000
      O #2    z    0.000000    0.000000   -8.388147

 Evaluation of 1e integral derivatives required    1.83 seconds.
                    8815  records have been written to the Sort file.
  Total length of Sort file :             180513570  words.
 Evaluation of 2el integral derivatives

                      Two-electron integral gradient
                      ------------------------------

                         C #1 z    -8.0666919393
                         O #2 z     8.0666919393


 C #1       0.0000000000            0.0000000000           -8.0666919393
 O #2       0.0000000000            0.0000000000            8.0666919393


 Evaluation of 2e integral derivatives required  722.97 seconds.

                            Molecular gradient
                            ------------------

                         C #1 z     0.6387617286
                         O #2 z    -0.6387617286


 C #1       0.0000000000            0.0000000000            0.6387617286
 O #2       0.0000000000            0.0000000000           -0.6387617286


  Molecular gradient norm 0.903E+00

                            Molecular hessian
                            -----------------


           Symmetry 1

           C #1 z      O #2 z

 C #1 z   23.102702
 O #2 z  -23.102702   23.102702


           Symmetry 2

           C #1 x      O #2 x

 C #1 x    2.018055
 O #2 x   -2.018055    2.018055


           Symmetry 3

           C #1 y      O #2 y

 C #1 y    2.018055
 O #2 y   -2.018055    2.018055




           C #1 x      C #1 y      C #1 z      O #2 x      O #2 y      O #2 z

 C #1 x    2.018055
 C #1 y    0.000000    2.018055
 C #1 z    0.000000    0.000000   23.102702

 O #2 x   -2.018055    0.000000    0.000000    2.018055
 O #2 y    0.000000   -2.018055    0.000000    0.000000    2.018055
 O #2 z    0.000000    0.000000  -23.102702    0.000000    0.000000   23.102702




                           Total dipole moment
                           -------------------

                               au             Debye

                    z      0.38267504      0.97266309

  Conversion factor used: 1 a.u. =   2.54174691 Debye 



                     Total dipole moment derivatives
                     -------------------------------


           Symmetry 1
                              Ez

               C #1 z     0.63506477
               O #2 z    -0.63506477

           Symmetry 2
                              Ex

               C #1 x     0.13973110
               O #2 x    -0.13973110

           Symmetry 3
                              Ey

               C #1 y     0.13973110
               O #2 y    -0.13973110



                       Ex          Ey          Ez

      C #1    x    0.139731    0.000000    0.000000
      C #1    y    0.000000    0.139731    0.000000
      C #1    z    0.000000    0.000000    0.635065

      O #2    x   -0.139731    0.000000    0.000000
      O #2    y    0.000000   -0.139731    0.000000
      O #2    z    0.000000    0.000000   -0.635065

 @CHECKOUT-I, Total execution time (CPU/WALL):      724.78/     122.03 seconds.
--executable xvdint finished with status     0 in      122.22 seconds (walltime).
 --invoking executable--
/nfs/workspaces/public/cfour_mpi/bin/xjoda
  @GTFLGS-I, Hessian will be transformed to curvilinear coordinates.
  @GTFLGS-I, Hessian will be transformed to curvilinear coordinates.
  igrd and ihes are                      0                     1
  gradient from JOBARC 
   0.000000000000000   0.000000000000000   0.638761728552258
   0.000000000000000   0.000000000000000  -0.638761728552258
 
  @PROJFCM-I, Projecting force constant matrix onto totally symmetric subspace.
  Largest difference between matrix elements of symmetrized
  and unsymmetrized FCM :     0.6341593917E-12.
  read isotopes from ZMAT file 
 
  Summary of diagonal Born-Oppenheimer correction at the correlated level
  The total diagonal Born-Oppenheimer correction (DBOC) is:      0.0038690007 a.u.
  The total diagonal Born-Oppenheimer correction (DBOC) is:        849.147493 cm-1
  The total diagonal Born-Oppenheimer correction (DBOC) is:            10.158 kJ/mole
  hellooooooo 
  readis is  F
 
 @CHECKOUT-I, Total execution time (CPU/WALL):        0.01/       0.11 seconds.
--executable xjoda finished with status     0 in        0.16 seconds (walltime).
  The final electronic energy is      -113.135132128631014 a.u. 
  This computation required                         4397.36 seconds (walltime).
