 --invoking executable--
/nfs/workspaces/public/cfour_mpi/bin/xjoda


   *************************************************************************
         <<<     CCCCCC     CCCCCC   |||     CCCCCC     CCCCCC   >>>
       <<<      CCC        CCC       |||    CCC        CCC         >>>
      <<<      CCC        CCC        |||   CCC        CCC            >>>
    <<<        CCC        CCC        |||   CCC        CCC              >>>
      <<<      CCC        CCC        |||   CCC        CCC            >>>
       <<<      CCC        CCC       |||    CCC        CCC         >>>
         <<<     CCCCCC     CCCCCC   |||     CCCCCC     CCCCCC   >>>
   *************************************************************************

     ****************************************************************
     * CFOUR Coupled-Cluster techniques for Computational Chemistry *
     ****************************************************************
 

   Department of Chemistry                Institut fuer Physikalische Chemie
   University of Florida                  Universitaet Mainz
   Gainesville, FL 32611, USA             D-55099 Mainz, Germany

   Department of Chemistry                Fakultaet fuer Chemie und Biowiss.
   Johns Hopkins University               Karlsruher Institut fuer Technologie
   Baltimore, MD 21218, USA               D-76131 Karlsruhe, Germany

   Department of Chemistry                Department of Physical Chemistry
   Southern Methodist University          Eotvos Lorand University
   Dallas, TX 75275, USA                  H-1053 Budapest, Hungary

 
                       Version 2.1
 
                     vincent.theory.phys.ucl.ac.uk                     
                     Sun  2 Mar 10:36:14 GMT 2025                      
                     integer*8 version is running
 
********************************************************************************
*                          Input from ZMAT file                                *
********************************************************************************
Carbon Monoxide DBOC calculation                                                
C                                                                               
O 1 r                                                                           
                                                                                
r=1.303448275862069                                                             
                                                                                
                                                                                
*CFOUR(CALC=CCSD,BASIS=AUG-PCVQZ,SCF_CONV=10                                    
CC_CONV=14,DBOC=ON,MEMORY=500000000                                             
ZFIELD=200)                                                                     
                                                                                
%isotopes                                                                       
12                                                                              
18                                                                              
********************************************************************************
  @GTFLGS-I, Hessian will be transformed to curvilinear coordinates.
    -------------------------------------------------------------------
                    CFOUR Control Parameters 
    -------------------------------------------------------------------
        External           Internal           Value            Units
          Name               Name
    -------------------------------------------------------------------
       ABCDTYPE             IABCDT         STANDARD    [  0]    ***   
       ANHARMONIC           IANHAR         OFF         [  0]    ***   
       ANH_ALGORIT          IANALG         STANDARD    [  0]    ***   
       ANH_DERIVAT          IANDER         SECOND      [  1]    ***   
       ANH_MODE             ANHMOD         VIBRATION   [  0]    ***   
       ANH_STEPSIZ          ICUBST             50000          x 10-6  
       ANH_SYMMETR          IANHSM         ABELIAN     [  0]    ***   
       AO_LADDERS           IAOLAD         SINGLEPASS  [  1]    ***   
       AV_SCF               IAVSCF         OFF         [  0]    ***   
       BASIS                IBASIS         AUG-PCVQZ   [ 52]    ***   
       BOTHVECTORS          BOTHVC         OFF         [  0]    ***   
       BOX_POTENT           IPIAB          OFF         [  0]    ***   
       BREIT                IBREIT         OFF         [  0]    ***   
       BRUCK_CONV           IBRTOL          10D-  4             ***   
       BRUECKNER            IBRKNR         OFF         [  0]    ***   
       BUFFERSIZE           IBUFFS              4096            ***   
       CACHE_RECS           ICHREC             10               ***   
       CALCLEVEL            ICLLVL         CCSD        [ 10]    ***   
       CCORBOPT             ICCORB         OFF         [  0]  x 0.01  
       CC_CONV              ICCCNV          10D- 14             ***   
       CC_EXPORDER          ICCEOR              5               ***   
       CC_EXTRAPOL          ICCEXT         DIIS        [  1]    ***   
       CC_GUESS             ICCGES         MP2         [  0]    ***   
       CC_MAXCYC            ICCCYC            100              cycles 
       CC_PROGRAM           ICCPRO         VCC         [  0]    ***   
       CHARGE               ICHRGE              0               ***   
       CHOLESKY             ICHOLE         OFF         [  0]    ***   
       CIS_CONV             ICISTL              5               ***   
       COMM_SIZE            IPSIZE            ***               ***   
       CONSTANT             ICONST         OLD         [  1]    ***   
       CONTINUUM            ICONTU         NONE        [  0]    ***   
       CONTRACTION          ICNTYP         GENERAL     [  1]    ***   
       COORDINATES          ICOORD         INTERNAL    [  0]    ***   
       CPHF_CONVER          ICPHFT          10D- 16             ***   
       CPHF_MAXCYC          ICPHFC             64              cycles 
       CUBIC                ICUBIC         OFF         [  0]    ***   
       CURVILINEAR          ICURVY         ON          [  1]    ***   
       DBOC                 IDBOC          ON          [  1]    ***   
       DCT                  IDCT           OFF         [  0]    ***   
       DERIV_LEV            IDRLVL         SECOND      [  2]    ***   
       DEVMEM_SIZE          IDVMEM          50000000           MByte  
       DIAG_MRCC            IEOMST          10D-  0             ***   
       DIFF_TYPE            IDIFTY         RELAXED     [  0]    ***   
       DIRECT               IDIRCT         OFF         [  0]    ***   
       DROPMO               IDRPMO      NONE         
       ECP                  IECP           OFF         [  0]    ***   
       EIGENVECTOR          IVEC                1               ***   
       EL_ANHARM            IELANH         OFF         [  0]    ***   
       EOMFOLLOW            IEOMSR         ENERGY      [  0]    ***   
       EOMIP                IEOMIP         OFF         [  0]    ***   
       EOMLEVEL             HBARFM         SAME        [  0]    ***   
       EOM_MRCC             IMRCCE         NEW         [  1]    ***   
       EOM_NONIT            EOMNON         OFF         [  0]    ***   
       EOM_NSING            IEOMSI          10D-  0             ***   
       EOM_NSTATES          IMRCCD         DAVIDSON    [  0]    ***   
       EOM_NTRIP            IEOMTR          10D-  0             ***   
       EOM_ORDER            IEXORD         ENERGY      [  0]    ***   
       EOM_PROPSTA          IEOMST              0               ***   
       ESTATE_CONV          IEXTOL          10D-  5             ***   
       ESTATE_DIAG          IEXDIG         ITERATIVE   [  0]    ***   
       ESTATE_LOCK          IESLOC         ON          [  1]    ***   
       ESTATE_MAXC          IEXMXC             40               ***   
       ESTATE_PROP          IEXPRP         OFF         [  0]    ***   
       EVAL_HESS            IRECAL              0            # of cyc.
       EXCITATION           IEXCIT              0               ***   
       EXCITE               IEXCIT         NONE        [  0]    ***   
       EXTERN_POT           IEXPOT         OFF         [  0]    ***   
       FCGRADNEW            IFCGNW         OFF         [  0]    ***   
       FC_FIELD             IFINFC              0             x 10-6  
       FD_CALTYPE           IFDCAL         GRADONLY    [  0]    ***   
       FD_PROJECT           IFDPRJ         OFF         [  1]    ***   
       FD_STEPSIZE          IDISFD              0            10-4 bohr
       FD_USEGROUP          IFDGRP         FULL        [  0]    ***   
       FILE_RECSIZ          IFLREC              4096           words  
       FINITE_PERT          IFIPER              0             x 10-6  
       FIXGEOM              IFIXGM         OFF         [  0]    ***   
       FOCK                 IFOCK          AO          [  1]    ***   
       FREQ_ALGORI          IVIALG         STANDARD    [  0]    ***   
       FROZEN_CORE          IFROCO         OFF         [  0]    ***   
       GAMMA_ABCD           IGABCD         STORE       [  0]    ***   
       GAMMA_ABCI           IGABCI         STORE       [  0]    ***   
       GENBAS_1             IGNBS1              0               ***   
       GENBAS_2             IGNBS2              0               ***   
       GENBAS_3             IGNBS3              0               ***   
       GENBAS_4             IGNBS4              0               ***   
       GEO_CONV             ICONTL              5              H/bohr 
       GEO_MAXCYC           IOPTCY             50               ***   
       GEO_MAXSTEP          IMXSTP            300            millibohr
       GEO_METHOD           INR            SINGLE_POINT[  5]    ***   
       GIAO                 IGIAO          OFF         [  1]    ***   
       GIMIC                IGIMIC         OFF         [  0]    ***   
       GRID                 IGRID          OFF         [  0]    ***   
       GRID_ALGO            IGALGO         SERIAL      [  0]    ***   
       GUESS                IGUESS         MOREAD      [  0]    ***   
       HBAR                 IHBAR          OFF         [  0]    ***   
       HESS_TYPE            IHESTP         SCF         [  0]    ***   
       HF2_FILE             IHF2Fl         USE         [  1]    ***   
       HFSTABILITY          ISTABL         OFF         [  0]    ***   
       INCORE               INCORE         OFF         [  0]    ***   
       INPUT_MRCC           IMRCC          ON          [  1]    ***   
       INTEGRALS            INTTYP         VMOL        [  1]    ***   
       JODA_PRINT           IJPRNT              0               ***   
       KEYWORD_OUT          IDMPKW         NO          [  0]    ***   
       LINDEP_TOL           ILINDP              8               ***   
       LINEQ_CONV           IZTACN          10D-  7           cycles  
       LINEQ_EXPOR          ILMAXD              5               ***   
       LINEQ_MAXCY          ILMAXC            100               ***   
       LINEQ_TYPE           ILTYPE         DIIS        [  1]    ***   
       LOCK_ORBOCC          ILOCOC         OFF         [  0]    ***   
       MEMORY_SIZE          IMEMSZ         500000000           words  
       MEM_UNIT             IMEMU          INTEGERWORDS[  0]    ***   
       MRCC                 IMRCCC         OFF         [  0]    ***   
       MULTIPLICTY          IMULTP              1               ***   
       NACOUPLING           IVCOUP         OFF         [  0]    ***   
       NEGEVAL              IDIE           ABORT       [  0]    ***   
       NEWNORM              INEWNO         OFF         [  0]    ***   
       NON-HF               INONHF         OFF         [  0]    ***   
       NTOP_TAMP            ITOPT2             15               ***   
       NUC_MODEL            INUCMO         POINT       [  0]    ***   
       OCCUPATION           IOCCU   ESTIMATED BY SCF 
       OPEN-SHELL           IOPEN          SPIN-ORBITAL[  0]    ***   
       OPTVIB               IOPTVB         OFF         [  0]    ***   
       ORBITALS             IORBTP         STANDARD    [  0]    ***   
       PARALLEL             IPARAL         ON          [  1]    ***   
       PARA_INT             IPINTS         ON          [  1]    ***   
       PARA_PRINT           IPPRIN              0               ***   
       PERT_ORB             IPTORB         STANDARD    [  0]    ***   
       POINTS               IGRDFD              0               ***   
       PRINT                IPRNT               0               ***   
       PROPS                IPROPS         OFF         [  0]    ***   
       PROP_INTEGR          IINTYP         INTERNAL    [  0]    ***   
       PSI                  IPSI           OFF         [  0]    ***   
       QC_ALG               IQCALG         FLM         [  0]    ***   
       QC_LINALG            IQCLIN         TRIDIAG     [  2]    ***   
       QC_MAXCYC            IQCMAX          10D-100           cycles  
       QC_MAXSCFCY          IQCMSC          10D- 15           cycles  
       QC_RTRUST            IQCRTR          10D-  0           x 10-3  
       QC_SKIPSCF           IQCSKI         OFF         [  0]    ***   
       QC_START             IQCSTA          10D-  1             ***   
       QRHFGUESS            IQGUES         OFF         [  0]    ***   
       QUARTIC              IQUART         OFF         [  0]    ***   
       RAMAN_INT            IRAMIN         OFF         [  0]    ***   
       RAMAN_ORB            IRAMRE         UNRELAXED   [  0]    ***   
       RDO                  IRDOFM         ON          [  1]    ***   
       REDUCE_REPR          REDREP         Ir          [  0]    ***   
       REFERENCE            IREFNC         RHF         [  0]    ***   
       RELATIVIST           IRELAT         OFF         [  0]    ***   
       RELAX_DENS           IRDENS         ON          [  1]    ***   
       RESET_FLAGS          IRESET         OFF         [  0]    ***   
       RESTART_CC           ICCRES         OFF         [  0]    ***   
       ROT_EVEC             ROTVEC              0               ***   
       SAVE_INTS            ISVINT         OFF         [  0]    ***   
       SCALE_ON             ISTCRT              0               ***   
       SCF_CONV             ISCFCV          10D- 10             ***   
       SCF_DAMPING          IDAMP               0             x 10-3  
       SCF_EXPORDE          IRPPOR              6               ***   
       SCF_EXPSTAR          IRPPLS              8               ***   
       SCF_EXTRAPO          IRPP           ON          [  1]    ***   
       SCF_MAXCYC           ISCFCY            150              cycles 
       SCF_NOSTOP           ISCFST         OFF         [  0]    ***   
       SCF_PRINT            ISCFPR              0               ***   
       SCF_PROG             ISCFPR         SCF         [  0]    ***   
       SD_FIELD             IFINSD              0             x 10-6  
       SOPERT               IPERSO         OFF         [  0]    ***   
       SPHERICAL            IDFGHI         ON          [  1]    ***   
       SPINORBIT            ISOCAL         OFF         [  0]    ***   
       SPINROTATIO          ISRCON         OFF         [  0]    ***   
       SPIN_FLIP            ISPFLP         OFF         [  0]    ***   
       SPIN_ORBIT           ISPORB         OFF         [  0]    ***   
       SPIN_SCAL            ISCSMP         OFF         [  0]    ***   
       STEEPSCALE           ISTPSC              1000          x 10-3  
       SUBGROUP             ISUBGP         DEFAULT     [  0]    ***   
       SUBGRPAXIS           ISBXYZ         X           [  0]    ***   
       SYMMETRY             ISYM           ON          [  0]    ***   
       SYM_CHECK            ISYMCK         OVERRIDE    [  1]    ***   
       T3_EXTRAPOL          IT3EXT         OFF         [  0]    ***   
       T4_EXTRAPOL          IT4EXP         OFF         [  0]    ***   
       TAMP_SUM             IEVERY              5               ***   
       TESTSUITE            ITESTS         OFF         [  0]    ***   
       THERMOCH             ITHERM         OFF         [  0]    ***   
       TOL_CHOLESK          ITOLCH          10D-  4             ***   
       TRANGRAD             IRESRM         OFF         [  0]    ***   
       TRANS_INV            ITRAIN         IGNORE      [  1]    ***   
       TREAT_PERT           ITREAT         SIMULTANEOUS[  0]    ***   
       TRIP_ALGORI          ITRALG         NORMAL      [  0]    ***   
       UIJ_THRESHO          IUIJTH              1               ***   
       UNITS                IUNITS         ANGSTROM    [  0]    ***   
       UNOS                 IUNOS          OFF         [  0]    ***   
       UPDATE_HESS          IHUPDT         ON          [  1]    ***   
       VIBPHASE             ISETPH         STANDARD    [  0]    ***   
       VIBRATION            IVIB           ANALYTIC    [  1]    ***   
       VIB_ALGORIT          IGEALG         STANDARD    [  0]    ***   
       VNATORB              IVNORB         OFF         [  0]    ***   
       VTRAN                IVTRAN         FULL/PARTIAL[  0]    ***   
       XFIELD               IXEFLD              0             x 10-6  
       XFORM_TOL            IXFTOL          10D- 11             ***   
       YFIELD               IYEFLD              0             x 10-6  
       ZFIELD               IZEFLD            200             x 10-6  
       ZSCALE_EXP           IZEXPS         OFF         [  0]    ***   
    -------------------------------------------------------------------
   2 entries found in Z-matrix 
   Job Title : Carbon Monoxide DBOC calculation                                                
   There are  1 unique internal coordinates.
   Of these,  0 will be optimized.
   User supplied Z-matrix: 
--------------------------------------------------------------------------------
       SYMBOL    BOND      LENGTH    ANGLE     ANGLE     DIHED     ANGLE
                  TO      (ANGST)    WRT      (DEG)      WRT      (DEG)
--------------------------------------------------------------------------------
        C    
        O          1         r    
                  *Initial values for internal coordinates* 
                      Name             Value
                        r               1.3034482759
--------------------------------------------------------------------------------
  read isotopes from ZMAT file 
   Rotational constants (in cm-1): 
          1.3781121419             1.3781121419
   Rotational constants (in MHz): 
      41314.7684293867         41314.7684293867
********************************************************************************
   The full molecular point group is CXv .
   The largest Abelian subgroup of the full molecular point group is C2v .
   The computational point group is C2v .
********************************************************************************
--------------------------------------------------------------------------------
   Analysis of internal coordinates specified by Z-matrix 
--------------------------------------------------------------------------------
   *The nuclear repulsion energy is   19.487156698412697 a.u.
   *There is   1 degree of freedom within the tot. symm. molecular subspace.
   *Z-matrix requests optimization of   0 coordinates.
   *The optimization is constrained.
   *The following   1 parameters can have non-zero 
    derivatives within the totally symmetric subspace:
             r    [ 1]
   *The following   0 parameters are to be optimized:

   *The following coordinates must be varied in an  unconstrained optimization.
             r    [ 1]
--------------------------------------------------------------------------------


 ----------------------------------------------------------------
         Coordinates used in calculation (QCOMP) 
 ----------------------------------------------------------------
 Z-matrix   Atomic            Coordinates (in bohr)
  Symbol    Number           X              Y              Z
 ----------------------------------------------------------------
     C         6        -0.00000000     0.00000000     1.47786889
     O         8         0.00000000     0.00000000    -0.98529189
 ----------------------------------------------------------------
 
   Interatomic distance matrix (Angstroms) 
 
                 C             O    
                [ 1]        [ 2]
  C    [ 1]     0.00000
  O    [ 2]     1.30345     0.00000
 rotcon2
   Rotational constants (in cm-1): 
          1.3781121419             0.0000000000
   Rotational constants (in MHz): 
      41314.7684293867             0.0000000000
  ECPDATA file not present.   Using default ECPDATA. 
  @GTFLGS-I, Hessian will be transformed to curvilinear coordinates.
  There are  218 basis functions.
 @CHECKOUT-I, Total execution time (CPU/WALL):        0.14/       0.29 seconds.
--executable xjoda finished with status     0 in        0.33 seconds (walltime).
 --invoking executable--
/nfs/workspaces/public/cfour_mpi/bin/xvmol
 SERIAL VERSION OF MOLECULE STARTED
********************************************************************************
                    INPUT FROM MOL FILE
********************************************************************************
INTGRL        1    0    1    0    0    0    0    0    0                         
         *** CFOUR Program System (Release V0.1) ***                            
Carbon Monoxide DBOC calculation                                                
    2    2 X  Y       0.10E-08              0    0                              
   9999.00      3.00                                                            
          6.00000000    1    5    1    1    1    1    1                         
C #1  -0.000000000000000   0.000000000000000   1.477868886809093                
   16    9                                                                      
   33980.0000000000       9.100000000000000E-005 -1.900000000000000E-005        
  0.000000000000000E+000  0.000000000000000E+000  0.000000000000000E+000        
  0.000000000000000E+000  0.000000000000000E+000  0.000000000000000E+000        
  0.000000000000000E+000                                                        
   5089.00000000000       7.040000000000000E-004 -1.510000000000000E-004        
  0.000000000000000E+000  0.000000000000000E+000  0.000000000000000E+000        
  0.000000000000000E+000  0.000000000000000E+000  0.000000000000000E+000        
  0.000000000000000E+000                                                        
   1157.00000000000       3.693000000000000E-003 -7.850000000000000E-004        
  0.000000000000000E+000  0.000000000000000E+000  0.000000000000000E+000        
  0.000000000000000E+000  0.000000000000000E+000  0.000000000000000E+000        
  0.000000000000000E+000                                                        
   326.600000000000       1.536000000000000E-002 -3.324000000000000E-003        
  0.000000000000000E+000  0.000000000000000E+000  0.000000000000000E+000        
  0.000000000000000E+000  0.000000000000000E+000  0.000000000000000E+000        
  0.000000000000000E+000                                                        
   106.100000000000       5.292900000000000E-002 -1.151200000000000E-002        
  0.000000000000000E+000  0.000000000000000E+000  0.000000000000000E+000        
  0.000000000000000E+000  0.000000000000000E+000  0.000000000000000E+000        
  0.000000000000000E+000                                                        
   38.1100000000000       0.147043000000000      -3.416000000000000E-002        
  0.000000000000000E+000  0.000000000000000E+000  0.000000000000000E+000        
  0.000000000000000E+000  0.000000000000000E+000  0.000000000000000E+000        
  0.000000000000000E+000                                                        
   14.7500000000000       0.305631000000000      -7.717300000000001E-002        
  0.000000000000000E+000  0.000000000000000E+000  0.000000000000000E+000        
  0.000000000000000E+000  0.000000000000000E+000  0.000000000000000E+000        
  0.000000000000000E+000                                                        
   6.03500000000000       0.399345000000000      -0.141493000000000             
  0.000000000000000E+000  0.000000000000000E+000  0.000000000000000E+000        
  0.000000000000000E+000  0.000000000000000E+000  0.000000000000000E+000        
  0.000000000000000E+000                                                        
   2.53000000000000       0.217051000000000      -0.118019000000000             
  0.000000000000000E+000  0.000000000000000E+000  0.000000000000000E+000        
  0.000000000000000E+000  0.000000000000000E+000  0.000000000000000E+000        
  0.000000000000000E+000                                                        
  0.735500000000000       1.589400000000000E-002  0.273806000000000             
   1.00000000000000       0.000000000000000E+000  0.000000000000000E+000        
  0.000000000000000E+000  0.000000000000000E+000  0.000000000000000E+000        
  0.000000000000000E+000                                                        
  0.290500000000000      -3.084000000000000E-003  0.586510000000000             
  0.000000000000000E+000   1.00000000000000       0.000000000000000E+000        
  0.000000000000000E+000  0.000000000000000E+000  0.000000000000000E+000        
  0.000000000000000E+000                                                        
  0.111100000000000       9.779999999999999E-004  0.285430000000000             
  0.000000000000000E+000  0.000000000000000E+000   1.00000000000000             
  0.000000000000000E+000  0.000000000000000E+000  0.000000000000000E+000        
  0.000000000000000E+000                                                        
   7.21600000000000       0.000000000000000E+000  0.000000000000000E+000        
  0.000000000000000E+000  0.000000000000000E+000  0.000000000000000E+000        
   1.00000000000000       0.000000000000000E+000  0.000000000000000E+000        
  0.000000000000000E+000                                                        
   19.5700000000000       0.000000000000000E+000  0.000000000000000E+000        
  0.000000000000000E+000  0.000000000000000E+000  0.000000000000000E+000        
  0.000000000000000E+000   1.00000000000000       0.000000000000000E+000        
  0.000000000000000E+000                                                        
   53.0730000000000       0.000000000000000E+000  0.000000000000000E+000        
  0.000000000000000E+000  0.000000000000000E+000  0.000000000000000E+000        
  0.000000000000000E+000  0.000000000000000E+000   1.00000000000000             
  0.000000000000000E+000                                                        
  4.145000000000000E-002  0.000000000000000E+000  0.000000000000000E+000        
  0.000000000000000E+000  0.000000000000000E+000  0.000000000000000E+000        
  0.000000000000000E+000  0.000000000000000E+000  0.000000000000000E+000        
   1.00000000000000                                                             
   10    8                                                                      
   34.5100000000000       5.378000000000000E-003  0.000000000000000E+000        
  0.000000000000000E+000  0.000000000000000E+000  0.000000000000000E+000        
  0.000000000000000E+000  0.000000000000000E+000  0.000000000000000E+000        
   7.91500000000000       3.613200000000000E-002  0.000000000000000E+000        
  0.000000000000000E+000  0.000000000000000E+000  0.000000000000000E+000        
  0.000000000000000E+000  0.000000000000000E+000  0.000000000000000E+000        
   2.36800000000000       0.142493000000000       0.000000000000000E+000        
  0.000000000000000E+000  0.000000000000000E+000  0.000000000000000E+000        
  0.000000000000000E+000  0.000000000000000E+000  0.000000000000000E+000        
  0.813200000000000       0.342150000000000        1.00000000000000             
  0.000000000000000E+000  0.000000000000000E+000  0.000000000000000E+000        
  0.000000000000000E+000  0.000000000000000E+000  0.000000000000000E+000        
  0.289000000000000       0.463864000000000       0.000000000000000E+000        
   1.00000000000000       0.000000000000000E+000  0.000000000000000E+000        
  0.000000000000000E+000  0.000000000000000E+000  0.000000000000000E+000        
  0.100700000000000       0.250028000000000       0.000000000000000E+000        
  0.000000000000000E+000   1.00000000000000       0.000000000000000E+000        
  0.000000000000000E+000  0.000000000000000E+000  0.000000000000000E+000        
   8.18200000000000       0.000000000000000E+000  0.000000000000000E+000        
  0.000000000000000E+000  0.000000000000000E+000   1.00000000000000             
  0.000000000000000E+000  0.000000000000000E+000  0.000000000000000E+000        
   24.1860000000000       0.000000000000000E+000  0.000000000000000E+000        
  0.000000000000000E+000  0.000000000000000E+000  0.000000000000000E+000        
   1.00000000000000       0.000000000000000E+000  0.000000000000000E+000        
   71.4940000000000       0.000000000000000E+000  0.000000000000000E+000        
  0.000000000000000E+000  0.000000000000000E+000  0.000000000000000E+000        
  0.000000000000000E+000   1.00000000000000       0.000000000000000E+000        
  3.218000000000000E-002  0.000000000000000E+000  0.000000000000000E+000        
  0.000000000000000E+000  0.000000000000000E+000  0.000000000000000E+000        
  0.000000000000000E+000  0.000000000000000E+000   1.00000000000000             
    6    6                                                                      
   1.84800000000000        1.00000000000000       0.000000000000000E+000        
  0.000000000000000E+000  0.000000000000000E+000  0.000000000000000E+000        
  0.000000000000000E+000                                                        
  0.649000000000000       0.000000000000000E+000   1.00000000000000             
  0.000000000000000E+000  0.000000000000000E+000  0.000000000000000E+000        
  0.000000000000000E+000                                                        
  0.228000000000000       0.000000000000000E+000  0.000000000000000E+000        
   1.00000000000000       0.000000000000000E+000  0.000000000000000E+000        
  0.000000000000000E+000                                                        
   8.65600000000000       0.000000000000000E+000  0.000000000000000E+000        
  0.000000000000000E+000   1.00000000000000       0.000000000000000E+000        
  0.000000000000000E+000                                                        
   33.2130000000000       0.000000000000000E+000  0.000000000000000E+000        
  0.000000000000000E+000  0.000000000000000E+000   1.00000000000000             
  0.000000000000000E+000                                                        
  7.660000000000000E-002  0.000000000000000E+000  0.000000000000000E+000        
  0.000000000000000E+000  0.000000000000000E+000  0.000000000000000E+000        
   1.00000000000000                                                             
    4    4                                                                      
   1.41900000000000        1.00000000000000       0.000000000000000E+000        
  0.000000000000000E+000  0.000000000000000E+000                                
  0.485000000000000       0.000000000000000E+000   1.00000000000000             
  0.000000000000000E+000  0.000000000000000E+000                                
   24.6940000000000       0.000000000000000E+000  0.000000000000000E+000        
   1.00000000000000       0.000000000000000E+000                                
  0.187000000000000       0.000000000000000E+000  0.000000000000000E+000        
  0.000000000000000E+000   1.00000000000000                                     
    2    2                                                                      
   1.01100000000000        1.00000000000000       0.000000000000000E+000        
  0.424000000000000       0.000000000000000E+000   1.00000000000000             
          8.00000000    1    5    1    1    1    1    1                         
O #2   0.000000000000000   0.000000000000000  -0.985291888405989                
   16    9                                                                      
   61420.0000000000       9.000000000000001E-005 -2.000000000000000E-005        
  0.000000000000000E+000  0.000000000000000E+000  0.000000000000000E+000        
  0.000000000000000E+000  0.000000000000000E+000  0.000000000000000E+000        
  0.000000000000000E+000                                                        
   9199.00000000000       6.980000000000001E-004 -1.590000000000000E-004        
  0.000000000000000E+000  0.000000000000000E+000  0.000000000000000E+000        
  0.000000000000000E+000  0.000000000000000E+000  0.000000000000000E+000        
  0.000000000000000E+000                                                        
   2091.00000000000       3.664000000000000E-003 -8.290000000000000E-004        
  0.000000000000000E+000  0.000000000000000E+000  0.000000000000000E+000        
  0.000000000000000E+000  0.000000000000000E+000  0.000000000000000E+000        
  0.000000000000000E+000                                                        
   590.900000000000       1.521800000000000E-002 -3.508000000000000E-003        
  0.000000000000000E+000  0.000000000000000E+000  0.000000000000000E+000        
  0.000000000000000E+000  0.000000000000000E+000  0.000000000000000E+000        
  0.000000000000000E+000                                                        
   192.300000000000       5.242300000000000E-002 -1.215600000000000E-002        
  0.000000000000000E+000  0.000000000000000E+000  0.000000000000000E+000        
  0.000000000000000E+000  0.000000000000000E+000  0.000000000000000E+000        
  0.000000000000000E+000                                                        
   69.3200000000000       0.145921000000000      -3.626100000000000E-002        
  0.000000000000000E+000  0.000000000000000E+000  0.000000000000000E+000        
  0.000000000000000E+000  0.000000000000000E+000  0.000000000000000E+000        
  0.000000000000000E+000                                                        
   26.9700000000000       0.305258000000000      -8.299200000000000E-002        
  0.000000000000000E+000  0.000000000000000E+000  0.000000000000000E+000        
  0.000000000000000E+000  0.000000000000000E+000  0.000000000000000E+000        
  0.000000000000000E+000                                                        
   11.1000000000000       0.398508000000000      -0.152090000000000             
  0.000000000000000E+000  0.000000000000000E+000  0.000000000000000E+000        
  0.000000000000000E+000  0.000000000000000E+000  0.000000000000000E+000        
  0.000000000000000E+000                                                        
   4.68200000000000       0.216980000000000      -0.115331000000000             
  0.000000000000000E+000  0.000000000000000E+000  0.000000000000000E+000        
  0.000000000000000E+000  0.000000000000000E+000  0.000000000000000E+000        
  0.000000000000000E+000                                                        
   1.42800000000000       1.759400000000000E-002  0.288979000000000             
   1.00000000000000       0.000000000000000E+000  0.000000000000000E+000        
  0.000000000000000E+000  0.000000000000000E+000  0.000000000000000E+000        
  0.000000000000000E+000                                                        
  0.554700000000000      -2.502000000000000E-003  0.586128000000000             
  0.000000000000000E+000   1.00000000000000       0.000000000000000E+000        
  0.000000000000000E+000  0.000000000000000E+000  0.000000000000000E+000        
  0.000000000000000E+000                                                        
  0.206700000000000       9.540000000000000E-004  0.277624000000000             
  0.000000000000000E+000  0.000000000000000E+000   1.00000000000000             
  0.000000000000000E+000  0.000000000000000E+000  0.000000000000000E+000        
  0.000000000000000E+000                                                        
   12.9740000000000       0.000000000000000E+000  0.000000000000000E+000        
  0.000000000000000E+000  0.000000000000000E+000  0.000000000000000E+000        
   1.00000000000000       0.000000000000000E+000  0.000000000000000E+000        
  0.000000000000000E+000                                                        
   34.9000000000000       0.000000000000000E+000  0.000000000000000E+000        
  0.000000000000000E+000  0.000000000000000E+000  0.000000000000000E+000        
  0.000000000000000E+000   1.00000000000000       0.000000000000000E+000        
  0.000000000000000E+000                                                        
   93.8810000000000       0.000000000000000E+000  0.000000000000000E+000        
  0.000000000000000E+000  0.000000000000000E+000  0.000000000000000E+000        
  0.000000000000000E+000  0.000000000000000E+000   1.00000000000000             
  0.000000000000000E+000                                                        
  6.959000000000000E-002  0.000000000000000E+000  0.000000000000000E+000        
  0.000000000000000E+000  0.000000000000000E+000  0.000000000000000E+000        
  0.000000000000000E+000  0.000000000000000E+000  0.000000000000000E+000        
   1.00000000000000                                                             
   10    8                                                                      
   63.4200000000000       6.044000000000000E-003  0.000000000000000E+000        
  0.000000000000000E+000  0.000000000000000E+000  0.000000000000000E+000        
  0.000000000000000E+000  0.000000000000000E+000  0.000000000000000E+000        
   14.6600000000000       4.179900000000000E-002  0.000000000000000E+000        
  0.000000000000000E+000  0.000000000000000E+000  0.000000000000000E+000        
  0.000000000000000E+000  0.000000000000000E+000  0.000000000000000E+000        
   4.45900000000000       0.161143000000000       0.000000000000000E+000        
  0.000000000000000E+000  0.000000000000000E+000  0.000000000000000E+000        
  0.000000000000000E+000  0.000000000000000E+000  0.000000000000000E+000        
   1.53100000000000       0.356731000000000        1.00000000000000             
  0.000000000000000E+000  0.000000000000000E+000  0.000000000000000E+000        
  0.000000000000000E+000  0.000000000000000E+000  0.000000000000000E+000        
  0.530200000000000       0.448309000000000       0.000000000000000E+000        
   1.00000000000000       0.000000000000000E+000  0.000000000000000E+000        
  0.000000000000000E+000  0.000000000000000E+000  0.000000000000000E+000        
  0.175000000000000       0.244940000000000       0.000000000000000E+000        
  0.000000000000000E+000   1.00000000000000       0.000000000000000E+000        
  0.000000000000000E+000  0.000000000000000E+000  0.000000000000000E+000        
   14.4750000000000       0.000000000000000E+000  0.000000000000000E+000        
  0.000000000000000E+000  0.000000000000000E+000   1.00000000000000             
  0.000000000000000E+000  0.000000000000000E+000  0.000000000000000E+000        
   42.7300000000000       0.000000000000000E+000  0.000000000000000E+000        
  0.000000000000000E+000  0.000000000000000E+000  0.000000000000000E+000        
   1.00000000000000       0.000000000000000E+000  0.000000000000000E+000        
   126.140000000000       0.000000000000000E+000  0.000000000000000E+000        
  0.000000000000000E+000  0.000000000000000E+000  0.000000000000000E+000        
  0.000000000000000E+000   1.00000000000000       0.000000000000000E+000        
  5.348000000000000E-002  0.000000000000000E+000  0.000000000000000E+000        
  0.000000000000000E+000  0.000000000000000E+000  0.000000000000000E+000        
  0.000000000000000E+000  0.000000000000000E+000   1.00000000000000             
    6    6                                                                      
   3.77500000000000        1.00000000000000       0.000000000000000E+000        
  0.000000000000000E+000  0.000000000000000E+000  0.000000000000000E+000        
  0.000000000000000E+000                                                        
   1.30000000000000       0.000000000000000E+000   1.00000000000000             
  0.000000000000000E+000  0.000000000000000E+000  0.000000000000000E+000        
  0.000000000000000E+000                                                        
  0.444000000000000       0.000000000000000E+000  0.000000000000000E+000        
   1.00000000000000       0.000000000000000E+000  0.000000000000000E+000        
  0.000000000000000E+000                                                        
   14.9270000000000       0.000000000000000E+000  0.000000000000000E+000        
  0.000000000000000E+000   1.00000000000000       0.000000000000000E+000        
  0.000000000000000E+000                                                        
   57.5440000000000       0.000000000000000E+000  0.000000000000000E+000        
  0.000000000000000E+000  0.000000000000000E+000   1.00000000000000             
  0.000000000000000E+000                                                        
  0.154000000000000       0.000000000000000E+000  0.000000000000000E+000        
  0.000000000000000E+000  0.000000000000000E+000  0.000000000000000E+000        
   1.00000000000000                                                             
    4    4                                                                      
   2.66600000000000        1.00000000000000       0.000000000000000E+000        
  0.000000000000000E+000  0.000000000000000E+000                                
  0.859000000000000       0.000000000000000E+000   1.00000000000000             
  0.000000000000000E+000  0.000000000000000E+000                                
   26.4830000000000       0.000000000000000E+000  0.000000000000000E+000        
   1.00000000000000       0.000000000000000E+000                                
  0.324000000000000       0.000000000000000E+000  0.000000000000000E+000        
  0.000000000000000E+000   1.00000000000000                                     
    2    2                                                                      
   1.84600000000000        1.00000000000000       0.000000000000000E+000        
  0.714000000000000       0.000000000000000E+000   1.00000000000000             
FINISH                                                                          
 
********************************************************************************
 ONE- AND TWO-ELECTRON INTEGRALS OVER SYMMETRY-ADAPTED AOS ARE CALCULATED.

  SPHERICAL HARMONICS ARE USED.
  
  INTEGRALS LESS THAN  0.10E-13 ARE NEGLECTED.

  NUCLEAR REPULSION ENERGY :   19.4871566984 A.U.
  @MOLECU-I, ONE ELECTRON INTEGRALS (CPU/WALL):        0.05/       0.05 SECONDS.
  @TWOEL-I,    4525655 INTEGRALS OF SYMMETRY TYPE  I I I I
  @TWOEL-I,   19472774 INTEGRALS OF SYMMETRY TYPE  I J I J
  @TWOEL-I,   10258668 INTEGRALS OF SYMMETRY TYPE  I I J J
  @TWOEL-I,   14415330 INTEGRALS OF SYMMETRY TYPE  I J K L
  @TWOEL-I, TOTAL NUMBER OF 2-E INTEGRALS   48672427.
  @MOLECU-I, TWO ELECTRON INTEGRALS (CPU/WALL):      232.91/      31.75 SECONDS.
 @CHECKOUT-I, Total execution time (CPU/WALL):      232.98/      31.81 seconds.

Running with 14 threads/proc

--executable xvmol finished with status     0 in       31.87 seconds (walltime).
 --invoking executable--
/nfs/workspaces/public/cfour_mpi/bin/xvmol2ja
 @GETMEM-I,  Allocated    3814 MB of main memory.
 @CHECKOUT-I, Total execution time (CPU/WALL):        0.12/       0.11 seconds.
--executable xvmol2ja finished with status     0 in        0.16 seconds (walltime).
 --invoking executable--
/nfs/workspaces/public/cfour_mpi/bin/xvprop
 @GETMEM-I,  Allocated    3814 MB of main memory.
   Property integrals will be calculated.
    --------------------------------------------------------------
                                   Property evaluated at 
    Property type                X             Y             Z
    --------------------------------------------------------------
    Dipole moment               ----          ----          ----  
    Quadrupole moment           ----          ----          ----  
    Octopole moment             ----          ----          ----  
    Relativisitic corr.         ----          ----          ----  
    Second moment            0.0000000     0.0000000     0.0000000
    Electron density         0.0000000     0.0000000     1.4778689
    Electron density         0.0000000     0.0000000    -0.9852919
    Field gradient           0.0000000     0.0000000     1.4778689
    Field gradient           0.0000000     0.0000000    -0.9852919
    Potential                0.0000000     0.0000000     1.4778689
    Potential                0.0000000     0.0000000    -0.9852919
    --------------------------------------------------------------
 @CHECKOUT-I, Total execution time (CPU/WALL):        1.53/       1.57 seconds.
--executable xvprop finished with status     0 in        1.63 seconds (walltime).
 --invoking executable--
/nfs/workspaces/public/cfour_mpi/bin/xvscf
  There are  218 functions in the AO basis.

  There are 4 irreducible representations.

       Irrep        # of functions
         1                 86
         2                 52
         3                 52
         4                 28


  Parameters for SCF calculation: 
        SCF reference function:  RHF  
  Maximum number of iterations:  150
     Full symmetry point group: CXv 
     Computational point group: C2v 
        Initial density matrix: MOREAD                 
     SCF convergence tolerance: 10**(-10)
  DIIS convergence acceleration:  ON
          Latest start for DIIS:   8
                     DIIS order:   6

  Memory information:    2523578 words required.
  Fock matrices are constructed from AO integral file.
 @GETMEM-I,  Allocated      19 MB of main memory.
  Initialization and symmetry analysis required      0.001 seconds.

  Adding electric field perturbation to one-electron Hamiltonian.
  Field direction     : Z
  Field strength      :  0.0002000 a.u.

  @INITGES-I, Occupancies from core Hamiltonian:

          Alpha population by irrep:   5    1    1    0
           Beta population by irrep:   5    1    1    0


 total no. of electrons in initial guess :  0.000000000000000E+000
  --------------------------------------------------------------------
  Iteration         Total Energy            Largest Density Difference
  --------------------------------------------------------------------
       0            19.486959722770472              0.0000000000D+00
   current occupation vector 
     5  1  1  0
     5  1  1  0
       1           -92.819614267194794              0.1790328251D+02
   current occupation vector 
     5  1  1  0
     5  1  1  0
       2           -98.298903444598892              0.1789952603D+02
   current occupation vector 
     5  1  1  0
     5  1  1  0
       3          -103.503842137073690              0.7392217677D+01
   current occupation vector 
     5  1  1  0
     5  1  1  0
       4           -99.334287923265776              0.7052823005D+01
   current occupation vector 
     5  1  1  0
     5  1  1  0
       5          -101.891630439227185              0.6107096954D+01
   current occupation vector 
     5  1  1  0
     5  1  1  0
       6           -98.143151026791827              0.6081155355D+01
   current occupation vector 
     5  1  1  0
     5  1  1  0
       7          -101.905622350601448              0.6260376211D+01
   current occupation vector 
     5  1  1  0
     5  1  1  0
       8           -98.050100807524586              0.6258844553D+01
   current occupation vector 
     5  1  1  0
     5  1  1  0
       9          -109.096317172265771              0.4695397211D+01
   current occupation vector 
     5  1  1  0
     5  1  1  0
      10          -111.170931883637707              0.1132206447D+01
   current occupation vector 
     5  1  1  0
     5  1  1  0
      11          -112.589078927824460              0.9073549653D+00
   current occupation vector 
     5  1  1  0
     5  1  1  0
      12          -112.716840254582422              0.3578725130D+00
   current occupation vector 
     5  1  1  0
     5  1  1  0
      13          -112.718578523885697              0.4472354549D-01
   current occupation vector 
     5  1  1  0
     5  1  1  0
      14          -112.718797526881929              0.1535182362D-01
   current occupation vector 
     5  1  1  0
     5  1  1  0
      15          -112.718830574534593              0.9723840846D-02
   current occupation vector 
     5  1  1  0
     5  1  1  0
      16          -112.718831175204230              0.1211539080D-02
   current occupation vector 
     5  1  1  0
     5  1  1  0
      17          -112.718831222207257              0.3947873281D-03
   current occupation vector 
     5  1  1  0
     5  1  1  0
      18          -112.718831226511156              0.1337395479D-03
   current occupation vector 
     5  1  1  0
     5  1  1  0
      19          -112.718831226597985              0.2105300089D-04
   current occupation vector 
     5  1  1  0
     5  1  1  0
      20          -112.718831226602447              0.3540123582D-05
   current occupation vector 
     5  1  1  0
     5  1  1  0
      21          -112.718831226601907              0.5293785408D-06
   current occupation vector 
     5  1  1  0
     5  1  1  0
      22          -112.718831226602504              0.9728147110D-07
   current occupation vector 
     5  1  1  0
     5  1  1  0
      23          -112.718831226602020              0.2478333183D-07
   current occupation vector 
     5  1  1  0
     5  1  1  0
      24          -112.718831226601992              0.9059174522D-09
   current occupation vector 
     5  1  1  0
     5  1  1  0
      25          -112.718831226601850              0.5371085798D-09
   current occupation vector 
     5  1  1  0
     5  1  1  0

  SCF has converged.

 Density matrix saved to file den.dat
 total electron number:   13.9999999999999     
     E(SCF)=      -112.718831226601850              0.7471290253D-10

  Eigenvector printing suppressed.

 @PUTMOS-I, Writing converged MOs to NEWMOS. 
 @PUTMOS-I, Symmetry   1 Full Blocks 21 Partial Blocksize   2
 @PUTMOS-I, Symmetry   2 Full Blocks 13 Partial Blocksize   0
 @PUTMOS-I, Symmetry   3 Full Blocks 13 Partial Blocksize   0
 @PUTMOS-I, Symmetry   4 Full Blocks  7 Partial Blocksize   0
 @PUTFOCK-I, Writing converged Fock matrix to NEWFOCK. 
 @PUTFOCK-I, Symmetry   1 Full Blocks 21 Partial Blocksize   2
 @PUTFOCK-I, Symmetry   2 Full Blocks 13 Partial Blocksize   0
 @PUTFOCK-I, Symmetry   3 Full Blocks 13 Partial Blocksize   0
 @PUTFOCK-I, Symmetry   4 Full Blocks  7 Partial Blocksize   0


 
  ORBITAL EIGENVALUES (ALPHA)  (1H = 27.2113834 eV)

       MO #        E(hartree)               E(eV)           FULLSYM    COMPSYM
       ----   --------------------   --------------------   -------   ---------
    1     1         -20.6653382524        -562.3324422770     SG+        A1 (1)
    2     2         -11.4342919308        -311.1429016356     SG+        A1 (1)
    3     3          -1.4105932429         -38.3841935529     SG+        A1 (1)
    4     4          -0.7935960000         -21.5948450197     SG+        A1 (1)
    5   139          -0.5734791823         -15.6051619016      PI        B2 (3)
    6    87          -0.5734791823         -15.6051619016      PI        B1 (2)
    7     5          -0.5655847539         -15.3903435847     SG+        A1 (1)
  +++++++++++++++++++++++++++++++++++++++++++++++++++++++++++++++++++++++++++++
    8   140           0.0497293754           1.3532051012      PI        B2 (3)
    9    88           0.0497293754           1.3532051012      PI        B1 (2)
   10     6           0.0626391177           1.7044970484     SG+        A1 (1)
   11     7           0.0717751054           1.9530999108     SG+        A1 (1)
   12    89           0.1015331908           2.7628585825      PI        B1 (2)
   13   141           0.1015331908           2.7628585825      PI        B2 (3)
   14     8           0.1563801851           4.2553211732     SG+        A1 (1)
   15    90           0.1688523843           4.5947069664      PI        B1 (2)
   16   142           0.1688523843           4.5947069664      PI        B2 (3)
   17     9           0.2269481193           6.1755722857      DE        A1 (1)
   18   191           0.2269481193           6.1755722857      DE        A2 (4)
   19    10           0.2278654589           6.2005343668     SG+        A1 (1)
   20    11           0.2998107965           8.1582665301     SG+        A1 (1)
   21    91           0.3049940830           8.2993109261      PI        B1 (2)
   22   143           0.3049940830           8.2993109261      PI        B2 (3)
   23    12           0.3819285024          10.3928029108     SG+        A1 (1)
   24    92           0.3965435063          10.7904973846      PI        B1 (2)
   25   144           0.3965435063          10.7904973846      PI        B2 (3)
   26    13           0.5092387034          13.8570896006     SG+        A1 (1)
   27   192           0.5435245222          14.7900541612      DE        A2 (4)
   28    14           0.5435245222          14.7900541612      DE        A1 (1)
   29    15           0.5582046757          15.1895214464     SG+        A1 (1)
   30    93           0.6254282616          17.0187682149      PI        B1 (2)
   31   145           0.6254282616          17.0187682149      PI        B2 (3)
   32   146           0.7441797610          20.2501607938      PH        B2 (3)
   33    94           0.7441797610          20.2501607938      PH        B1 (2)
   34   193           0.7593398014          20.6626864656      DE        A2 (4)
   35    16           0.7593398014          20.6626864656      DE        A1 (1)
   36    17           0.7604836101          20.6938110828     SG+        A1 (1)
   37    95           0.8032331551          21.8570853429      PI        B1 (2)
   38   147           0.8032331551          21.8570853429      PI        B2 (3)
   39    18           0.8289166030          22.5559674919     SG+        A1 (1)
   40    19           0.8693563421          23.6563887357     SG+        A1 (1)
   41   194           0.8808231565          23.9684166198      DE        A2 (4)
   42    20           0.8808231565          23.9684166198      DE        A1 (1)
   43    96           0.8943928516          24.3376667962      PI        B1 (2)
   44   148           0.8943928516          24.3376667962      PI        B2 (3)
   45    97           1.0439866696          28.4083215318      PI        B1 (2)
   46   149           1.0439866696          28.4083215318      PI        B2 (3)
   47    21           1.1275904551          30.6832961929     SG+        A1 (1)
   48    22           1.4216604127          38.6853465532     SG+        A1 (1)
   49   150           1.4349017098          39.0456605655      PH        B2 (3)
   50    98           1.4349017098          39.0456605655      PH        B1 (2)
   51   195           1.5470245843          42.0966790917      DE        A2 (4)
   52    23           1.5470245843          42.0966790917      DE        A1 (1)
   53    99           1.5696250575          42.7116692343      PI        B1 (2)
   54   151           1.5696250575          42.7116692343      PI        B2 (3)
   55    24           1.6527301769          44.9730745002     SG+        A1 (1)
   56   100           1.6846061955          45.8404650628      PI        B1 (2)
   57   152           1.6846061955          45.8404650628      PI        B2 (3)
   58   196           1.7387344112          47.3133686948      DE        A2 (4)
   59    25           1.7387344112          47.3133686949      DE        A1 (1)
   60    26           1.8398802819          50.0656877597     SG+        A1 (1)
   61    27           2.0437571919          55.6134605250     SG+        A1 (1)
   62   101           2.0519926422          55.8375585214      PI        B1 (2)
   63   153           2.0519926422          55.8375585214      PI        B2 (3)
   64    28           2.0927967950          56.9478959672      PI        A1 (1)
   65   197           2.0927967950          56.9478959672      PI        A2 (4)
   66   198           2.1646219099          58.9023567076      DE        A2 (4)
   67    29           2.1646219099          58.9023567076      DE        A1 (1)
   68   102           2.2359259263          60.8426376339      PH        B1 (2)
   69   154           2.2359259263          60.8426376339      PH        B2 (3)
   70   103           2.2871089425          62.2353983106      PI        B1 (2)
   71   155           2.2871089425          62.2353983106      PI        B2 (3)
   72    30           2.2950494345          62.4514700843     SG+        A1 (1)
   73   156           2.3008038069          62.6080545173      PH        B2 (3)
   74   104           2.3008038069          62.6080545173      PH        B1 (2)
   75   199           2.3345681690          63.5268295211      DE        A2 (4)
   76    31           2.3345681690          63.5268295211      DE        A1 (1)
   77    32           2.4935178564          67.8520704050     SG+        A1 (1)
   78   105           2.5482603096          69.3416882877      PI        B1 (2)
   79   157           2.5482603096          69.3416882878      PI        B2 (3)
   80   106           2.7004878286          73.4840096702      PI        B1 (2)
   81   158           2.7004878286          73.4840096702      PI        B2 (3)
   82    33           2.7060369756          73.6350096380     SG+        A1 (1)
   83    34           2.8599122306          77.8221681966      DE        A1 (1)
   84   200           2.8599122306          77.8221681966      DE        A2 (4)
   85    35           3.3980200123          92.4648253555     SG+        A1 (1)
   86   107           3.6520291413          99.3767651512      PI        B1 (2)
   87   159           3.6520291413          99.3767651512      PI        B2 (3)
   88   201           3.7035429926         100.7785283088      PI        A2 (4)
   89    36           3.7035429926         100.7785283088      PI        A1 (1)
   90    37           3.8993102287         106.1056256286     SG+        A1 (1)
   91   108           4.0753320445         110.8954227452      PH        B1 (2)
   92   160           4.0753320445         110.8954227452      PH        B2 (3)
   93   161           4.1376270439         112.5905558565      PH        B2 (3)
   94   109           4.1376270439         112.5905558565      PH        B1 (2)
   95   110           4.1836441681         113.8427454664      PI        B1 (2)
   96   162           4.1836441681         113.8427454664      PI        B2 (3)
   97   202           4.2045038368         114.4103659093      DE        A2 (4)
   98    38           4.2045038368         114.4103659093      DE        A1 (1)
   99    39           4.2214338034         114.8710537231     SG+        A1 (1)
  100   203           4.3086423834         117.2441198273      DE        A2 (4)
  101    40           4.3086423834         117.2441198273      DE        A1 (1)
  102    41           4.3820954418         119.2428791610     SG+        A1 (1)
  103   111           4.8530229767         132.0574688679      PI        B1 (2)
  104   163           4.8530229767         132.0574688679      PI        B2 (3)
  105   112           4.9396496111         134.4146994285      PI        B1 (2)
  106   164           4.9396496111         134.4146994285      PI        B2 (3)
  107    42           4.9946044245         135.9100959256      DE        A1 (1)
  108   204           4.9946044245         135.9100959257      DE        A2 (4)
  109    43           5.1561783126         140.3067449425     SG+        A1 (1)
  110    44           5.3464911157         145.4854195938     SG+        A1 (1)
  111   113           5.6034424457         152.4774207498      PI        B1 (2)
  112   165           5.6034424457         152.4774207499      PI        B2 (3)
  113   205           5.8738829326         159.8364805270      PI        A2 (4)
  114    45           5.8738829326         159.8364805270      PI        A1 (1)
  115   114           6.0004201788         163.2797340476      PH        B1 (2)
  116   166           6.0004201788         163.2797340476      PH        B2 (3)
  117    46           6.2183783077         169.2106762572     SG+        A1 (1)
  118   206           6.2342107860         169.6414998942      DE        A2 (4)
  119    47           6.2342107860         169.6414998942      DE        A1 (1)
  120   115           6.2659800515         170.5059855573      PI        B1 (2)
  121   167           6.2659800515         170.5059855573      PI        B2 (3)
  122   116           6.4111085380         174.4551324464      PH        B1 (2)
  123   168           6.4111085380         174.4551324464      PH        B2 (3)
  124    48           6.5405076200         177.9762604779      DE        A1 (1)
  125   207           6.5405076200         177.9762604780      DE        A2 (4)
  126    49           6.5429377599         178.0423879474     SG+        A1 (1)
  127    50           6.7848831433         184.6260565365      DE        A1 (1)
  128   208           6.7848831433         184.6260565365      DE        A2 (4)
  129   117           7.1318457266         194.0673884170      PI        B1 (2)
  130   169           7.1318457266         194.0673884170      PI        B2 (3)
  131    51           7.4644977319         203.1193096721     SG+        A1 (1)
  132   118           7.9557044839         216.4857249279      PI        B1 (2)
  133   170           7.9557044839         216.4857249280      PI        B2 (3)
  134    52           8.2436055041         224.3199099697     SG+        A1 (1)
  135   119          10.0659449865         273.9082883109      PI        B1 (2)
  136   171          10.0659449865         273.9082883110      PI        B2 (3)
  137    53          10.0867891652         274.4754872503     SG+        A1 (1)
  138   209          10.6157165864         288.8683340978      PI        A2 (4)
  139    54          10.6157165864         288.8683340978      PI        A1 (1)
  140   172          10.7953780676         293.7571715441      PH        B2 (3)
  141   120          10.7953780676         293.7571715441      PH        B1 (2)
  142    55          10.8675798112         295.7218808739     SG+        A1 (1)
  143   210          11.0289494167         300.1129710770      DE        A2 (4)
  144    56          11.0289494167         300.1129710770      DE        A1 (1)
  145   173          11.1932303437         304.5832823672      PI        B2 (3)
  146   121          11.1932303437         304.5832823672      PI        B1 (2)
  147    57          11.5050646279         313.0687246327     SG+        A1 (1)
  148   122          11.8610366186         322.7552149498      PH        B1 (2)
  149   174          11.8610366186         322.7552149498      PH        B2 (3)
  150    58          12.1296254531         330.0638887028      DE        A1 (1)
  151   211          12.1296254531         330.0638887029      DE        A2 (4)
  152   123          12.5888261216         342.5593741509      PI        B1 (2)
  153   175          12.5888261216         342.5593741509      PI        B2 (3)
  154    59          12.7905128942         348.0475502465      DE        A1 (1)
  155   212          12.7905128942         348.0475502465      DE        A2 (4)
  156    60          12.9801133340         353.2068405078     SG+        A1 (1)
  157   124          13.3596748380         363.5352341160      PI        B1 (2)
  158   176          13.3596748380         363.5352341160      PI        B2 (3)
  159    61          14.4309758318         392.6868161945     SG+        A1 (1)
  160    62          17.7067180384         481.8242932972     SG+        A1 (1)
  161   125          19.0539671760         518.4848061176      PI        B1 (2)
  162   177          19.0539671760         518.4848061181      PI        B2 (3)
  163    63          20.4926595715         557.6336164858     SG+        A1 (1)
  164    64          26.3899699959         718.1075914719      DE        A1 (1)
  165   213          26.3899699959         718.1075914719      DE        A2 (4)
  166   126          26.8198011217         729.8038910340      PI        B1 (2)
  167   178          26.8198011217         729.8038910340      PI        B2 (3)
  168    65          27.4888580566         748.0098558070     SG+        A1 (1)
  169   127          33.7120632455         917.3518781783      PI        B1 (2)
  170   179          33.7120632455         917.3518781784      PI        B2 (3)
  171    66          34.5529294124         940.2330098338     SG+        A1 (1)
  172    67          36.2543228296         986.5302784246     SG+        A1 (1)
  173    68          47.0892275293        1281.3630243106      DE        A1 (1)
  174   214          47.0892275293        1281.3630243106      DE        A2 (4)
  175   180          47.3505861294        1288.4749533816      PI        B2 (3)
  176   128          47.3505861294        1288.4749533816      PI        B1 (2)
  177    69          48.0399474519        1307.2334286282     SG+        A1 (1)
  178    70          64.0022829764        1741.5906605463     SG+        A1 (1)
  179   129          66.5671646560        1811.3846393057      PI        B1 (2)
  180   181          66.5671646560        1811.3846393061      PI        B2 (3)
  181    71          67.6245073994        1840.1563980800     SG+        A1 (1)
  182   130          98.5983037583        2682.9962461574      PH        B1 (2)
  183   182          98.5983037583        2682.9962461574      PH        B2 (3)
  184    72          98.6130112154        2683.3964564117      DE        A1 (1)
  185   215          98.6130112154        2683.3964564117      DE        A2 (4)
  186   183          98.6459349734        2684.2923574119      PI        B2 (3)
  187   131          98.6459349734        2684.2923574119      PI        B1 (2)
  188    73          98.6680962869        2684.8953974120     SG+        A1 (1)
  189   184         103.2849842703        2810.5273064417      PH        B2 (3)
  190   132         103.2849842703        2810.5273064417      PH        B1 (2)
  191    74         103.3119882570        2811.2621222763      DE        A1 (1)
  192   216         103.3119882570        2811.2621222769      DE        A2 (4)
  193   185         103.3534340151        2812.3899186918      PI        B2 (3)
  194   133         103.3534340151        2812.3899186918      PI        B1 (2)
  195    75         103.3679551819        2812.7850597292     SG+        A1 (1)
  196   217         115.0728106656        3131.2903699370      DE        A2 (4)
  197    76         115.0728106656        3131.2903699371      DE        A1 (1)
  198   186         115.2807672280        3136.9491556868      PI        B2 (3)
  199   134         115.2807672280        3136.9491556868      PI        B1 (2)
  200    77         115.6161037523        3146.0741264170     SG+        A1 (1)
  201   135         116.9740672285        3183.0261912134      PI        B1 (2)
  202   187         116.9740672286        3183.0261912136      PI        B2 (3)
  203    78         117.6472604935        3201.3447112476     SG+        A1 (1)
  204    79         122.4528600787        3332.1117240288     SG+        A1 (1)
  205   218         198.5572140873        5403.0164793647      DE        A2 (4)
  206    80         198.5572140873        5403.0164793647      DE        A1 (1)
  207   188         198.6966841045        5406.8116514764      PI        B2 (3)
  208   136         198.6966841045        5406.8116514765      PI        B1 (2)
  209    81         199.0538830912        5416.5315300529     SG+        A1 (1)
  210    82         216.5152360161        5891.6790991755     SG+        A1 (1)
  211   137         225.0128338907        6122.9104929205      PI        B1 (2)
  212   189         225.0128338907        6122.9104929208      PI        B2 (3)
  213    83         225.8520257257        6145.7460636897     SG+        A1 (1)
  214   138         395.4373465075       10760.3972464949      PI        B1 (2)
  215   190         395.4373465075       10760.3972464954      PI        B2 (3)
  216    84         395.9934920323       10775.5307355969     SG+        A1 (1)
  217    85         509.0525128414       13852.0230976607     SG+        A1 (1)
  218    86         895.3480326345       24363.6585924530     SG+        A1 (1)


  VSCF finished.

 @CHECKOUT-I, Total execution time (CPU/WALL):       46.59/      11.08 seconds.
--executable xvscf finished with status     0 in       11.14 seconds (walltime).
 --invoking executable--
/nfs/workspaces/public/cfour_mpi/bin/xvtran
 @GETMEM-I,  Allocated    3814 MB of main memory.
  Full RHF integral transformation
  Transformation of IIII integrals :
  1 pass through the AO integral file was required.
     4525655 AO integrals were read.
     8748375 MO integrals were written to HF2.
  Transformation of IIJJ integrals :
  1 pass through the AO integral file was required.
    10258668 AO integrals were read.
    14542787 MO integrals were written to HF2.
  Transformation of IJIJ integrals :
  1 pass through the AO integral file was required.
    19472774 AO integrals were read.
    27223659 MO integrals were written to HF2.
  Transformation of IJKL integrals :
  1 pass through the AO integral file was required.
    14415330 AO integrals were read.
    18390094 MO integrals were written to HF2.
  Summary of active molecular orbitals: 
------------------------------------------------------------------------
 
  Index      Eigenvalue    Symmetry    Index      Eigenvalue    Symmetry
------------------------------------------------------------------------
     1       -20.6653383        1       110         4.1376270        2
     2       -11.4342919        1       111         4.1836442        2
     3        -1.4105932        1       112         4.8530230        2
     4        -0.7935960        1       113         4.9396496        2
     5        -0.5655848        1       114         5.6034424        2
     6        -0.5734792        2       115         6.0004202        2
     7        -0.5734792        3       116         6.2659801        2
     8         0.0626391        1       117         6.4111085        2
     9         0.0717751        1       118         7.1318457        2
    10         0.1563802        1       119         7.9557045        2
    11         0.2269481        1       120        10.0659450        2
    12         0.2278655        1       121        10.7953781        2
    13         0.2998108        1       122        11.1932303        2
    14         0.3819285        1       123        11.8610366        2
    15         0.5092387        1       124        12.5888261        2
    16         0.5435245        1       125        13.3596748        2
    17         0.5582047        1       126        19.0539672        2
    18         0.7593398        1       127        26.8198011        2
    19         0.7604836        1       128        33.7120632        2
    20         0.8289166        1       129        47.3505861        2
    21         0.8693563        1       130        66.5671647        2
    22         0.8808232        1       131        98.5983038        2
    23         1.1275905        1       132        98.6459350        2
    24         1.4216604        1       133       103.2849843        2
    25         1.5470246        1       134       103.3534340        2
    26         1.6527302        1       135       115.2807672        2
    27         1.7387344        1       136       116.9740672        2
    28         1.8398803        1       137       198.6966841        2
    29         2.0437572        1       138       225.0128339        2
    30         2.0927968        1       139       395.4373465        2
    31         2.1646219        1       140         0.0497294        3
    32         2.2950494        1       141         0.1015332        3
    33         2.3345682        1       142         0.1688524        3
    34         2.4935179        1       143         0.3049941        3
    35         2.7060370        1       144         0.3965435        3
    36         2.8599122        1       145         0.6254283        3
    37         3.3980200        1       146         0.7441798        3
    38         3.7035430        1       147         0.8032332        3
    39         3.8993102        1       148         0.8943929        3
    40         4.2045038        1       149         1.0439867        3
    41         4.2214338        1       150         1.4349017        3
    42         4.3086424        1       151         1.5696251        3
    43         4.3820954        1       152         1.6846062        3
    44         4.9946044        1       153         2.0519926        3
    45         5.1561783        1       154         2.2359259        3
    46         5.3464911        1       155         2.2871089        3
    47         5.8738829        1       156         2.3008038        3
    48         6.2183783        1       157         2.5482603        3
    49         6.2342108        1       158         2.7004878        3
    50         6.5405076        1       159         3.6520291        3
    51         6.5429378        1       160         4.0753320        3
    52         6.7848831        1       161         4.1376270        3
    53         7.4644977        1       162         4.1836442        3
    54         8.2436055        1       163         4.8530230        3
    55        10.0867892        1       164         4.9396496        3
    56        10.6157166        1       165         5.6034424        3
    57        10.8675798        1       166         6.0004202        3
    58        11.0289494        1       167         6.2659801        3
    59        11.5050646        1       168         6.4111085        3
    60        12.1296255        1       169         7.1318457        3
    61        12.7905129        1       170         7.9557045        3
    62        12.9801133        1       171        10.0659450        3
    63        14.4309758        1       172        10.7953781        3
    64        17.7067180        1       173        11.1932303        3
    65        20.4926596        1       174        11.8610366        3
    66        26.3899700        1       175        12.5888261        3
    67        27.4888581        1       176        13.3596748        3
    68        34.5529294        1       177        19.0539672        3
    69        36.2543228        1       178        26.8198011        3
    70        47.0892275        1       179        33.7120632        3
    71        48.0399475        1       180        47.3505861        3
    72        64.0022830        1       181        66.5671647        3
    73        67.6245074        1       182        98.5983038        3
    74        98.6130112        1       183        98.6459350        3
    75        98.6680963        1       184       103.2849843        3
    76       103.3119883        1       185       103.3534340        3
    77       103.3679552        1       186       115.2807672        3
    78       115.0728107        1       187       116.9740672        3
    79       115.6161038        1       188       198.6966841        3
    80       117.6472605        1       189       225.0128339        3
    81       122.4528601        1       190       395.4373465        3
    82       198.5572141        1       191         0.2269481        4
    83       199.0538831        1       192         0.5435245        4
    84       216.5152360        1       193         0.7593398        4
    85       225.8520257        1       194         0.8808232        4
    86       395.9934920        1       195         1.5470246        4
    87       509.0525128        1       196         1.7387344        4
    88       895.3480326        1       197         2.0927968        4
    89         0.0497294        2       198         2.1646219        4
    90         0.1015332        2       199         2.3345682        4
    91         0.1688524        2       200         2.8599122        4
    92         0.3049941        2       201         3.7035430        4
    93         0.3965435        2       202         4.2045038        4
    94         0.6254283        2       203         4.3086424        4
    95         0.7441798        2       204         4.9946044        4
    96         0.8032332        2       205         5.8738829        4
    97         0.8943929        2       206         6.2342108        4
    98         1.0439867        2       207         6.5405076        4
    99         1.4349017        2       208         6.7848831        4
   100         1.5696251        2       209        10.6157166        4
   101         1.6846062        2       210        11.0289494        4
   102         2.0519926        2       211        12.1296255        4
   103         2.2359259        2       212        12.7905129        4
   104         2.2871089        2       213        26.3899700        4
   105         2.3008038        2       214        47.0892275        4
   106         2.5482603        2       215        98.6130112        4
   107         2.7004878        2       216       103.3119883        4
   108         3.6520291        2       217       115.0728107        4
   109         4.0753320        2       218       198.5572141        4
------------------------------------------------------------------------
  -20.6653382524109       -11.4342919307669       -1.41059324285838     
 -0.793595999963940      -0.565584753942901      -0.573479182304663     
 -0.573479182304668       6.263911773016030E-002  7.177510537187111E-002
  0.156380185108566       0.226948119280713       0.227865458940355     
  0.299810796467500       0.381928502423098       0.509238703408009     
  0.543524522210770       0.558204675708444       0.759339801355746     
  0.760483610060566       0.828916603038169       0.869356342083820     
  0.880823156525655        1.12759045513625        1.42166041265046     
   1.54702458426578        1.65273017689332        1.73873441123370     
   1.83988028185631        2.04375719189020        2.09279679500465     
   2.16462190994790        2.29504943450747        2.33456816903554     
   2.49351785638911        2.70603697561469        2.85991223057909     
   3.39802001229790        3.70354299255495        3.89931022869814     
   4.20450383677659        4.22143380343946        4.30864238336708     
   4.38209544175486        4.99460442447149        5.15617831258422     
   5.34649111569324        5.87388293264647        6.21837830770362     
   6.23421078599736        6.54050761998123        6.54293775991639     
   6.78488314329824        7.46449773193276        8.24360550407408     
   10.0867891652407        10.6157165863829        10.8675798112472     
   11.0289494167001        11.5050646279422        12.1296254531042     
   12.7905128941912        12.9801133340311        14.4309758317732     
   17.7067180383504        20.4926595715001        26.3899699958623     
   27.4888580566253        34.5529294123961        36.2543228296346     
   47.0892275293349        48.0399474518503        64.0022829764056     
   67.6245073993572        98.6130112154336        98.6680962869401     
[...]
 Convergence information after    11 iterations: 
 Largest element of residual vector : -0.37555742E-05.
 Largest element of DIIS residual   : -0.16161489E-05.
 Convergence information after    12 iterations: 
 Largest element of residual vector : -0.20522016E-05.
 Largest element of DIIS residual   : -0.93323431E-06.
 Convergence information after    13 iterations: 
 Largest element of residual vector : -0.80047976E-06.
 Largest element of DIIS residual   : -0.24781667E-06.
 Convergence information after    14 iterations: 
 Largest element of residual vector : -0.33822786E-06.
 Largest element of DIIS residual   : -0.13875217E-06.
 Convergence information after    15 iterations: 
 Largest element of residual vector : -0.90186389E-07.
 Largest element of DIIS residual   : -0.53984610E-07.
 Perturbed amplitude equations converged in    15 iterations.
  Dominant contributions to perturbed wavefunction:
    7    7  140   28  -0.2169991840 ABAB
    7    7   28  140  -0.2169991840 ABAB
    7    7  141   28  -0.1996109007 ABAB
    7    7   28  141  -0.1996109007 ABAB
    7    7  140   39   0.1781321795 ABAB
    7    7   39  140   0.1781321795 ABAB
    7    7  141   39   0.1697314737 ABAB
    7    7   39  141   0.1697314737 ABAB
    7    7  140   54  -0.1406309270 ABAB
    7    7   54  140  -0.1406309270 ABAB
    7    6   28   89  -0.1405764349 ABAB
    6    7   89   28  -0.1405764349 ABAB
    7    7  141   54  -0.1345393348 ABAB
    7    7   54  141  -0.1345393348 ABAB
    7    7  140   20  -0.1289091187 ABAB
    7    7   20  140  -0.1289091187 ABAB
    7    7  141   45   0.1277798544 ABAB
    7    7   45  141   0.1277798544 ABAB
    7    6   28   90  -0.1273194960 ABAB
    6    7   90   28  -0.1273194960 ABAB
  norm of converged amps    2.06011498543979     
 Starting iterative solution of the perturbed Lambda equations.
 The DIIS procedure is used to accelerate convergence.
 Convergence criterion is 10**(-7).
 Maximum number of iterations is 100.
 Convergence information after     1 iterations: 
 Largest element of residual vector :  0.61758268E-01.
 Largest element of DIIS residual   :  0.61758268E-01.
 Convergence information after     2 iterations: 
 Largest element of residual vector : -0.11430662E-01.
 Largest element of DIIS residual   :  0.72942002E-02.
 Convergence information after     3 iterations: 
 Largest element of residual vector :  0.46481411E-02.
 Largest element of DIIS residual   :  0.41491416E-02.
 Convergence information after     4 iterations: 
 Largest element of residual vector :  0.28450189E-02.
 Largest element of DIIS residual   :  0.24175884E-02.
 Convergence information after     5 iterations: 
 Largest element of residual vector :  0.19347747E-02.
 Largest element of DIIS residual   :  0.10721486E-02.
 Convergence information after     6 iterations: 
 Largest element of residual vector :  0.72093225E-03.
 Largest element of DIIS residual   :  0.26767035E-03.
 Convergence information after     7 iterations: 
 Largest element of residual vector :  0.23777556E-03.
 Largest element of DIIS residual   :  0.12279156E-03.
 Convergence information after     8 iterations: 
 Largest element of residual vector :  0.76712036E-04.
 Largest element of DIIS residual   :  0.44915323E-04.
 Convergence information after     9 iterations: 
 Largest element of residual vector :  0.27310894E-04.
 Largest element of DIIS residual   : -0.79146930E-05.
 Convergence information after    10 iterations: 
 Largest element of residual vector : -0.53666206E-05.
 Largest element of DIIS residual   : -0.48169360E-05.
 Convergence information after    11 iterations: 
 Largest element of residual vector : -0.27643702E-05.
 Largest element of DIIS residual   : -0.14892163E-05.
 Convergence information after    12 iterations: 
 Largest element of residual vector : -0.16032665E-05.
 Largest element of DIIS residual   : -0.12268049E-05.
 Convergence information after    13 iterations: 
 Largest element of residual vector : -0.91689787E-06.
 Largest element of DIIS residual   : -0.54237909E-06.
 Convergence information after    14 iterations: 
 Largest element of residual vector : -0.55160556E-06.
 Largest element of DIIS residual   : -0.31619062E-06.
 Convergence information after    15 iterations: 
 Largest element of residual vector : -0.21594350E-06.
 Largest element of DIIS residual   : -0.12680485E-06.
 Convergence information after    16 iterations: 
 Largest element of residual vector : -0.10997519E-06.
 Largest element of DIIS residual   : -0.41375786E-07.
 Perturbed Lambda equations converged in    16 iterations.
  Dominant contributions to perturbed wavefunction:
    7    7  140   28  -0.2001396281 ABAB
    7    7   28  140  -0.2001396281 ABAB
    7    7  141   28  -0.1827812124 ABAB
    7    7   28  141  -0.1827812124 ABAB
    7    7  140   39   0.1626155142 ABAB
    7    7   39  140   0.1626155142 ABAB
    7    7  141   39   0.1538639467 ABAB
    7    7   39  141   0.1538639467 ABAB
    7    7  140   54  -0.1311639307 ABAB
    7    7   54  140  -0.1311639307 ABAB
    7    6   28   89  -0.1274086507 ABAB
    6    7   89   28  -0.1274086507 ABAB
    7    7  141   54  -0.1247430647 ABAB
    7    7   54  141  -0.1247430647 ABAB
    7    7  140   20  -0.1165603644 ABAB
    7    7   20  140  -0.1165603644 ABAB
    7    6   28   90  -0.1147414308 ABAB
    6    7   90   28  -0.1147414308 ABAB
    7    7  141   45   0.1143660142 ABAB
    7    7   45  141   0.1143660142 ABAB
        The DBOC first-order density matrix is being calculated 
             (Symmetry block 3, perturbation   2)
 term   4.82317427697430     
 final tnorm  0.862803593834087     
  norm contr. I: |<0|L dT/dx|0>|^2   0.000000000000000E+000
  norm contr. II: <0|[nabla(1+L)e-T][nabla e^T]|0>   4.82317427697430     
  total norm contribution   4.82317427697430     
 oo  7.822988084241804E-003
 vv  -32.1404223895224     
 vo  5.814197209452548E-002
  Correlated perturbed 1-el contribution to DBOC  -32.0744574293436       cm**-1
  SUM_I |dc_I/dx|^2 contribution to DBOC   16.1354412520497       cm**-1
 
 
  The total diagonal Born-Oppenheimer correction (DBOC) is:      0.0038675267 a.u.
  The total diagonal Born-Oppenheimer correction (DBOC) is:        848.824005 cm-1
 
 Total CC energy including DBOC  -113.230544473621     
 First-order density matrix is being calculated  (Symmetry block 3, perturbation   2)
 Calculation of the contributions of <pq||rs> to dI(i,j)/dx required   3.3 seconds.
 Calculation of the contributions of <pq||rs> to dI(a,b)/dx required  16.1 seconds.
 Calculation of the contributions of <pq||rs> to dI(i,a)/dx required   9.5 seconds.
 First-order Z-vector equations are solved for 1 perturbation.
 Convergence reached after  18 iterations.
        U*G(pq,rs) contribution is being calculated
             (Symmetry block 3, perturbation   2)

 CCSD contribution to force constants 

        0.0000000000        0.0000000000        0.0000000000
        0.0000000000        0.0000000000        0.0000000000
        0.0000000000        0.0000000000        0.0000000000
        0.0000000000        0.0000000000        0.0000000000
        0.0000000000        0.0000000000        0.0000000000
        0.0000000000        0.0000000000        0.0000000000
        0.0000000000        0.0000000000        0.0000000000
        0.0000000000        0.0000000000        0.0000000000
        0.0000000000        0.0000000000        0.0000000000
        0.0000000000        0.0000000000        0.0000000000
        0.0000000000        0.0000000000        0.0000000000
        0.0000000000        1.4367435159       -1.4367435159

 CCSD contribution to dipole derivatives 

        0.0000000000        0.0000000000        0.0000000000
        0.0000000000        0.0000000000        0.0000000000
        0.0000000000        0.0000000000        0.0000000000
        0.0000000000        0.0000000000       -0.0514967502
        0.0000000000        0.0000000000        0.0000000000
        0.0000000000        0.0000000000        0.0000000000
 @CHECKOUT-I, Total execution time (CPU/WALL):     1237.61/     487.71 seconds.
--executable xsdcc finished with status     0 in      487.99 seconds (walltime).
 --invoking executable--
/nfs/workspaces/public/cfour_mpi/bin/xanti
 @GETMEM-I,  Allocated    3814 MB of main memory.
 CCSD MO derivative gammas will be sorted to Mulliken order.
 @CHECKOUT-I, Total execution time (CPU/WALL):       12.60/      29.16 seconds.
--executable xanti finished with status     0 in       29.35 seconds (walltime).
 --invoking executable--
/nfs/workspaces/public/cfour_mpi/bin/xbcktrn
 @GETMEM-I,  Allocated    3814 MB of main memory.
 CCSD MO derivative gammas will be transformed to the AO basis.
 @CHECKOUT-I, Total execution time (CPU/WALL):       23.47/       3.84 seconds.
--executable xbcktrn finished with status     0 in        3.89 seconds (walltime).
 --invoking executable--
/nfs/workspaces/public/cfour_mpi/bin/xvdint
 @GETMEM-I,  Allocated    3814 MB of main memory.
 One- and two-electron integral derivatives are calculated
 for RHF-CC/MBPT hessians and dipole derivatives.
 Spherical gaussians are used.
  magnet F F
                    8722  records have been written to the Sort file.
  Total length of Sort file :             178609116  words.
 Evaluation of 2el integral derivatives

                      Two-electron integral gradient
                      ------------------------------

                         C #1 z     0.0000000000
                         O #2 z     0.0000000000


 C #1       0.0000000000           -0.1927892616            0.0000000000
 O #2       0.0000000000            0.1927892616            0.0000000000


 Evaluation of 2e integral derivatives required  357.64 seconds.
  contribution to Hessian
        0.0000000000        0.0000000000        0.0000000000
        0.0000000000       -0.1927892616        0.1927892616
 @CHECKOUT-I, Total execution time (CPU/WALL):      357.63/      76.06 seconds.
--executable xvdint finished with status     0 in       76.24 seconds (walltime).
 --invoking executable--
/nfs/workspaces/public/cfour_mpi/bin/xanti
 @GETMEM-I,  Allocated    3814 MB of main memory.
 CCSD MO gammas will be sorted to Mulliken order.
 @CHECKOUT-I, Total execution time (CPU/WALL):       17.08/      55.00 seconds.
--executable xanti finished with status     0 in       55.18 seconds (walltime).
 --invoking executable--
/nfs/workspaces/public/cfour_mpi/bin/xbcktrn
 @GETMEM-I,  Allocated    3814 MB of main memory.
 CCSD MO gammas will be transformed to the AO basis.
 @CHECKOUT-I, Total execution time (CPU/WALL):       55.16/      10.74 seconds.
--executable xbcktrn finished with status     0 in       10.81 seconds (walltime).
 --invoking executable--
/nfs/workspaces/public/cfour_mpi/bin/xvdint
 @GETMEM-I,  Allocated    3814 MB of main memory.
 One- and two-electron integral derivatives are calculated
 for RHF-CC/MBPT hessians and dipole derivatives.
 Spherical gaussians are used.
  magnet F F

                     Kinetic energy integral gradient
                     --------------------------------

                         C #1 z    -1.0232713968
                         O #2 z     1.0232713968


 C #1       0.0000000000            0.0000000000           -1.0232713968
 O #2       0.0000000000            0.0000000000            1.0232713968



                   Nuclear attraction integral gradient
                   ------------------------------------

                         C #1 z    19.2159836384
                         O #2 z   -19.2159836384


 C #1       0.0000000000            0.0000000000           19.2159836384
 O #2       0.0000000000            0.0000000000          -19.2159836384



                      Reorthonormalization gradient
                      -----------------------------

                         C #1 z     0.0000000000
                         O #2 z     0.0000000000


 C #1       0.0000000000            0.0000000000            0.0000000000
 O #2       0.0000000000            0.0000000000            0.0000000000



                     Kinetic energy integral Hessian
                     -------------------------------


           Symmetry 1

           C #1 z      O #2 z

 C #1 z    0.961332
 O #2 z   -0.961332    0.961332


           Symmetry 2

           C #1 x      O #2 x

 C #1 x   -1.070981
 O #2 x    1.070981   -1.070981


           Symmetry 3

           C #1 y      O #2 y

 C #1 y   -1.070981
 O #2 y    1.070981   -1.070981




           C #1 x      C #1 y      C #1 z      O #2 x      O #2 y      O #2 z

 C #1 x   -1.070981
 C #1 y    0.000000   -1.070981
 C #1 z    0.000000    0.000000    0.961332

 O #2 x    1.070981    0.000000    0.000000   -1.070981
 O #2 y    0.000000    1.070981    0.000000    0.000000   -1.070981
 O #2 z    0.000000    0.000000   -0.961332    0.000000    0.000000    0.961332




                   Nuclear attraction integral Hessian
                   -----------------------------------


           Symmetry 1

           C #1 z      O #2 z

 C #1 z  -11.774938
 O #2 z   11.774938  -11.774938


           Symmetry 2

           C #1 x      O #2 x

 C #1 x   13.838686
 O #2 x  -13.838686   13.838686


           Symmetry 3

           C #1 y      O #2 y

 C #1 y   13.838686
 O #2 y  -13.838686   13.838686




           C #1 x      C #1 y      C #1 z      O #2 x      O #2 y      O #2 z

 C #1 x   13.838686
 C #1 y    0.000000   13.838686
 C #1 z    0.000000    0.000000  -11.774938

 O #2 x  -13.838686    0.000000    0.000000   13.838686
 O #2 y    0.000000  -13.838686    0.000000    0.000000   13.838686
 O #2 z    0.000000    0.000000   11.774938    0.000000    0.000000  -11.774938




                Highest order reorthonormalization Hessian
                ------------------------------------------


           Symmetry 1

           C #1 z      O #2 z

 C #1 z    0.000000
 O #2 z    0.000000    0.000000


           Symmetry 2

           C #1 x      O #2 x

 C #1 x    0.000000
 O #2 x    0.000000    0.000000


           Symmetry 3

           C #1 y      O #2 y

 C #1 y    0.000000
 O #2 y    0.000000    0.000000




           C #1 x      C #1 y      C #1 z      O #2 x      O #2 y      O #2 z




                Electronic contributions to dipole moment
                -----------------------------------------

                               au             Debye

                    z     -0.81168890     -2.06310775

  Conversion factor used: 1 a.u. =   2.54174691 Debye 



   Electronic contributions to static part of dipole moment derivatives
   --------------------------------------------------------------------


                     Total dipole moment derivatives
                     -------------------------------


           Symmetry 1
                              Ez

               C #1 z    -5.63576923
               O #2 z    -8.36423077

           Symmetry 2
                              Ex

               C #1 x    -5.70528043
               O #2 x    -8.29471957

           Symmetry 3
                              Ey

               C #1 y    -5.70528043
               O #2 y    -8.29471957



                       Ex          Ey          Ez

      C #1    x   -5.705280    0.000000    0.000000
      C #1    y    0.000000   -5.705280    0.000000
      C #1    z    0.000000    0.000000   -5.635769

      O #2    x   -8.294720    0.000000    0.000000
      O #2    y    0.000000   -8.294720    0.000000
      O #2    z    0.000000    0.000000   -8.364231

 Evaluation of 1e integral derivatives required    1.67 seconds.
                    8815  records have been written to the Sort file.
  Total length of Sort file :             180513570  words.
 Evaluation of 2el integral derivatives

                      Two-electron integral gradient
                      ------------------------------

                         C #1 z    -9.6110789329
                         O #2 z     9.6110789329


 C #1       0.0000000000            0.0000000000           -9.6110789329
 O #2       0.0000000000            0.0000000000            9.6110789329


 Evaluation of 2e integral derivatives required  745.24 seconds.

                            Molecular gradient
                            ------------------

                         C #1 z     0.6701900547
                         O #2 z    -0.6701900547


 C #1       0.0000000000            0.0000000000            0.6701900547
 O #2       0.0000000000            0.0000000000           -0.6701900547


  Molecular gradient norm 0.948E+00

                            Molecular hessian
                            -----------------


           Symmetry 1

           C #1 z      O #2 z

 C #1 z   40.760872
 O #2 z  -40.760872   40.760872


           Symmetry 2

           C #1 x      O #2 x

 C #1 x   -0.958478
 O #2 x    0.958478   -0.958478


           Symmetry 3

           C #1 y      O #2 y

 C #1 y   -0.958478
 O #2 y    0.958478   -0.958478




           C #1 x      C #1 y      C #1 z      O #2 x      O #2 y      O #2 z

 C #1 x   -0.958478
 C #1 y    0.000000   -0.958478
 C #1 z    0.000000    0.000000   40.760872

 O #2 x    0.958478    0.000000    0.000000   -0.958478
 O #2 y    0.000000    0.958478    0.000000    0.000000   -0.958478
 O #2 z    0.000000    0.000000  -40.760872    0.000000    0.000000   40.760872




                           Total dipole moment
                           -------------------

                               au             Debye

                    z      0.17318932      0.44020341

  Conversion factor used: 1 a.u. =   2.54174691 Debye 



                     Total dipole moment derivatives
                     -------------------------------


           Symmetry 1
                              Ez

               C #1 z     0.70283447
               O #2 z    -0.70283447

           Symmetry 2
                              Ex

               C #1 x     0.06952799
               O #2 x    -0.06952799

           Symmetry 3
                              Ey

               C #1 y     0.06952799
               O #2 y    -0.06952799



                       Ex          Ey          Ez

      C #1    x    0.069528    0.000000    0.000000
      C #1    y    0.000000    0.069528    0.000000
      C #1    z    0.000000    0.000000    0.702834

      O #2    x   -0.069528    0.000000    0.000000
      O #2    y    0.000000   -0.069528    0.000000
      O #2    z    0.000000    0.000000   -0.702834

 @CHECKOUT-I, Total execution time (CPU/WALL):      746.90/     138.48 seconds.
--executable xvdint finished with status     0 in      138.67 seconds (walltime).
 --invoking executable--
/nfs/workspaces/public/cfour_mpi/bin/xjoda
  @GTFLGS-I, Hessian will be transformed to curvilinear coordinates.
  @GTFLGS-I, Hessian will be transformed to curvilinear coordinates.
  igrd and ihes are                      0                     1
  gradient from JOBARC 
   0.000000000000000   0.000000000000000   0.670190054728724
   0.000000000000000   0.000000000000000  -0.670190054728724
 
  @PROJFCM-I, Projecting force constant matrix onto totally symmetric subspace.
  Largest difference between matrix elements of symmetrized
  and unsymmetrized FCM :     0.5460643049E-10.
  read isotopes from ZMAT file 
 
  Summary of diagonal Born-Oppenheimer correction at the correlated level
  The total diagonal Born-Oppenheimer correction (DBOC) is:      0.0038675267 a.u.
  The total diagonal Born-Oppenheimer correction (DBOC) is:        848.824005 cm-1
  The total diagonal Born-Oppenheimer correction (DBOC) is:            10.154 kJ/mole
  hellooooooo 
  readis is  F
 
 @CHECKOUT-I, Total execution time (CPU/WALL):        0.02/       0.09 seconds.
--executable xjoda finished with status     0 in        0.15 seconds (walltime).
  The final electronic energy is      -113.230544473620597 a.u. 
  This computation required                         4269.90 seconds (walltime).
