 --invoking executable--
/nfs/workspaces/public/cfour_mpi/bin/xjoda


   *************************************************************************
         <<<     CCCCCC     CCCCCC   |||     CCCCCC     CCCCCC   >>>
       <<<      CCC        CCC       |||    CCC        CCC         >>>
      <<<      CCC        CCC        |||   CCC        CCC            >>>
    <<<        CCC        CCC        |||   CCC        CCC              >>>
      <<<      CCC        CCC        |||   CCC        CCC            >>>
       <<<      CCC        CCC       |||    CCC        CCC         >>>
         <<<     CCCCCC     CCCCCC   |||     CCCCCC     CCCCCC   >>>
   *************************************************************************

     ****************************************************************
     * CFOUR Coupled-Cluster techniques for Computational Chemistry *
     ****************************************************************
 

   Department of Chemistry                Institut fuer Physikalische Chemie
   University of Florida                  Universitaet Mainz
   Gainesville, FL 32611, USA             D-55099 Mainz, Germany

   Department of Chemistry                Fakultaet fuer Chemie und Biowiss.
   Johns Hopkins University               Karlsruher Institut fuer Technologie
   Baltimore, MD 21218, USA               D-76131 Karlsruhe, Germany

   Department of Chemistry                Department of Physical Chemistry
   Southern Methodist University          Eotvos Lorand University
   Dallas, TX 75275, USA                  H-1053 Budapest, Hungary

 
                       Version 2.1
 
                     vincent.theory.phys.ucl.ac.uk                     
                     Sun  2 Mar 18:45:05 GMT 2025                      
                     integer*8 version is running
 
********************************************************************************
*                          Input from ZMAT file                                *
********************************************************************************
Carbon Monoxide DBOC calculation                                                
C                                                                               
O 1 r                                                                           
                                                                                
r=1.396551724137931                                                             
                                                                                
                                                                                
*CFOUR(CALC=CCSD,BASIS=AUG-PCVQZ,SCF_CONV=10                                    
CC_CONV=14,DBOC=ON,MEMORY=500000000                                             
ZFIELD=-200)                                                                    
                                                                                
%isotopes                                                                       
12                                                                              
18                                                                              
********************************************************************************
  @GTFLGS-I, Hessian will be transformed to curvilinear coordinates.
    -------------------------------------------------------------------
                    CFOUR Control Parameters 
    -------------------------------------------------------------------
        External           Internal           Value            Units
          Name               Name
    -------------------------------------------------------------------
       ABCDTYPE             IABCDT         STANDARD    [  0]    ***   
       ANHARMONIC           IANHAR         OFF         [  0]    ***   
       ANH_ALGORIT          IANALG         STANDARD    [  0]    ***   
       ANH_DERIVAT          IANDER         SECOND      [  1]    ***   
       ANH_MODE             ANHMOD         VIBRATION   [  0]    ***   
       ANH_STEPSIZ          ICUBST             50000          x 10-6  
       ANH_SYMMETR          IANHSM         ABELIAN     [  0]    ***   
       AO_LADDERS           IAOLAD         SINGLEPASS  [  1]    ***   
       AV_SCF               IAVSCF         OFF         [  0]    ***   
       BASIS                IBASIS         AUG-PCVQZ   [ 52]    ***   
       BOTHVECTORS          BOTHVC         OFF         [  0]    ***   
       BOX_POTENT           IPIAB          OFF         [  0]    ***   
       BREIT                IBREIT         OFF         [  0]    ***   
       BRUCK_CONV           IBRTOL          10D-  4             ***   
       BRUECKNER            IBRKNR         OFF         [  0]    ***   
       BUFFERSIZE           IBUFFS              4096            ***   
       CACHE_RECS           ICHREC             10               ***   
       CALCLEVEL            ICLLVL         CCSD        [ 10]    ***   
       CCORBOPT             ICCORB         OFF         [  0]  x 0.01  
       CC_CONV              ICCCNV          10D- 14             ***   
       CC_EXPORDER          ICCEOR              5               ***   
       CC_EXTRAPOL          ICCEXT         DIIS        [  1]    ***   
       CC_GUESS             ICCGES         MP2         [  0]    ***   
       CC_MAXCYC            ICCCYC            100              cycles 
       CC_PROGRAM           ICCPRO         VCC         [  0]    ***   
       CHARGE               ICHRGE              0               ***   
       CHOLESKY             ICHOLE         OFF         [  0]    ***   
       CIS_CONV             ICISTL              5               ***   
       COMM_SIZE            IPSIZE            ***               ***   
       CONSTANT             ICONST         OLD         [  1]    ***   
       CONTINUUM            ICONTU         NONE        [  0]    ***   
       CONTRACTION          ICNTYP         GENERAL     [  1]    ***   
       COORDINATES          ICOORD         INTERNAL    [  0]    ***   
       CPHF_CONVER          ICPHFT          10D- 16             ***   
       CPHF_MAXCYC          ICPHFC             64              cycles 
       CUBIC                ICUBIC         OFF         [  0]    ***   
       CURVILINEAR          ICURVY         ON          [  1]    ***   
       DBOC                 IDBOC          ON          [  1]    ***   
       DCT                  IDCT           OFF         [  0]    ***   
       DERIV_LEV            IDRLVL         SECOND      [  2]    ***   
       DEVMEM_SIZE          IDVMEM          50000000           MByte  
       DIAG_MRCC            IEOMST          10D-  0             ***   
       DIFF_TYPE            IDIFTY         RELAXED     [  0]    ***   
       DIRECT               IDIRCT         OFF         [  0]    ***   
       DROPMO               IDRPMO      NONE         
       ECP                  IECP           OFF         [  0]    ***   
       EIGENVECTOR          IVEC                1               ***   
       EL_ANHARM            IELANH         OFF         [  0]    ***   
       EOMFOLLOW            IEOMSR         ENERGY      [  0]    ***   
       EOMIP                IEOMIP         OFF         [  0]    ***   
       EOMLEVEL             HBARFM         SAME        [  0]    ***   
       EOM_MRCC             IMRCCE         NEW         [  1]    ***   
       EOM_NONIT            EOMNON         OFF         [  0]    ***   
       EOM_NSING            IEOMSI          10D-  0             ***   
       EOM_NSTATES          IMRCCD         DAVIDSON    [  0]    ***   
       EOM_NTRIP            IEOMTR          10D-  0             ***   
       EOM_ORDER            IEXORD         ENERGY      [  0]    ***   
       EOM_PROPSTA          IEOMST              0               ***   
       ESTATE_CONV          IEXTOL          10D-  5             ***   
       ESTATE_DIAG          IEXDIG         ITERATIVE   [  0]    ***   
       ESTATE_LOCK          IESLOC         ON          [  1]    ***   
       ESTATE_MAXC          IEXMXC             40               ***   
       ESTATE_PROP          IEXPRP         OFF         [  0]    ***   
       EVAL_HESS            IRECAL              0            # of cyc.
       EXCITATION           IEXCIT              0               ***   
       EXCITE               IEXCIT         NONE        [  0]    ***   
       EXTERN_POT           IEXPOT         OFF         [  0]    ***   
       FCGRADNEW            IFCGNW         OFF         [  0]    ***   
       FC_FIELD             IFINFC              0             x 10-6  
       FD_CALTYPE           IFDCAL         GRADONLY    [  0]    ***   
       FD_PROJECT           IFDPRJ         OFF         [  1]    ***   
       FD_STEPSIZE          IDISFD              0            10-4 bohr
       FD_USEGROUP          IFDGRP         FULL        [  0]    ***   
       FILE_RECSIZ          IFLREC              4096           words  
       FINITE_PERT          IFIPER              0             x 10-6  
       FIXGEOM              IFIXGM         OFF         [  0]    ***   
       FOCK                 IFOCK          AO          [  1]    ***   
       FREQ_ALGORI          IVIALG         STANDARD    [  0]    ***   
       FROZEN_CORE          IFROCO         OFF         [  0]    ***   
       GAMMA_ABCD           IGABCD         STORE       [  0]    ***   
       GAMMA_ABCI           IGABCI         STORE       [  0]    ***   
       GENBAS_1             IGNBS1              0               ***   
       GENBAS_2             IGNBS2              0               ***   
       GENBAS_3             IGNBS3              0               ***   
       GENBAS_4             IGNBS4              0               ***   
       GEO_CONV             ICONTL              5              H/bohr 
       GEO_MAXCYC           IOPTCY             50               ***   
       GEO_MAXSTEP          IMXSTP            300            millibohr
       GEO_METHOD           INR            SINGLE_POINT[  5]    ***   
       GIAO                 IGIAO          OFF         [  1]    ***   
       GIMIC                IGIMIC         OFF         [  0]    ***   
       GRID                 IGRID          OFF         [  0]    ***   
       GRID_ALGO            IGALGO         SERIAL      [  0]    ***   
       GUESS                IGUESS         MOREAD      [  0]    ***   
       HBAR                 IHBAR          OFF         [  0]    ***   
       HESS_TYPE            IHESTP         SCF         [  0]    ***   
       HF2_FILE             IHF2Fl         USE         [  1]    ***   
       HFSTABILITY          ISTABL         OFF         [  0]    ***   
       INCORE               INCORE         OFF         [  0]    ***   
       INPUT_MRCC           IMRCC          ON          [  1]    ***   
       INTEGRALS            INTTYP         VMOL        [  1]    ***   
       JODA_PRINT           IJPRNT              0               ***   
       KEYWORD_OUT          IDMPKW         NO          [  0]    ***   
       LINDEP_TOL           ILINDP              8               ***   
       LINEQ_CONV           IZTACN          10D-  7           cycles  
       LINEQ_EXPOR          ILMAXD              5               ***   
       LINEQ_MAXCY          ILMAXC            100               ***   
       LINEQ_TYPE           ILTYPE         DIIS        [  1]    ***   
       LOCK_ORBOCC          ILOCOC         OFF         [  0]    ***   
       MEMORY_SIZE          IMEMSZ         500000000           words  
       MEM_UNIT             IMEMU          INTEGERWORDS[  0]    ***   
       MRCC                 IMRCCC         OFF         [  0]    ***   
       MULTIPLICTY          IMULTP              1               ***   
       NACOUPLING           IVCOUP         OFF         [  0]    ***   
       NEGEVAL              IDIE           ABORT       [  0]    ***   
       NEWNORM              INEWNO         OFF         [  0]    ***   
       NON-HF               INONHF         OFF         [  0]    ***   
       NTOP_TAMP            ITOPT2             15               ***   
       NUC_MODEL            INUCMO         POINT       [  0]    ***   
       OCCUPATION           IOCCU   ESTIMATED BY SCF 
       OPEN-SHELL           IOPEN          SPIN-ORBITAL[  0]    ***   
       OPTVIB               IOPTVB         OFF         [  0]    ***   
       ORBITALS             IORBTP         STANDARD    [  0]    ***   
       PARALLEL             IPARAL         ON          [  1]    ***   
       PARA_INT             IPINTS         ON          [  1]    ***   
       PARA_PRINT           IPPRIN              0               ***   
       PERT_ORB             IPTORB         STANDARD    [  0]    ***   
       POINTS               IGRDFD              0               ***   
       PRINT                IPRNT               0               ***   
       PROPS                IPROPS         OFF         [  0]    ***   
       PROP_INTEGR          IINTYP         INTERNAL    [  0]    ***   
       PSI                  IPSI           OFF         [  0]    ***   
       QC_ALG               IQCALG         FLM         [  0]    ***   
       QC_LINALG            IQCLIN         TRIDIAG     [  2]    ***   
       QC_MAXCYC            IQCMAX          10D-100           cycles  
       QC_MAXSCFCY          IQCMSC          10D- 15           cycles  
       QC_RTRUST            IQCRTR          10D-  0           x 10-3  
       QC_SKIPSCF           IQCSKI         OFF         [  0]    ***   
       QC_START             IQCSTA          10D-  1             ***   
       QRHFGUESS            IQGUES         OFF         [  0]    ***   
       QUARTIC              IQUART         OFF         [  0]    ***   
       RAMAN_INT            IRAMIN         OFF         [  0]    ***   
       RAMAN_ORB            IRAMRE         UNRELAXED   [  0]    ***   
       RDO                  IRDOFM         ON          [  1]    ***   
       REDUCE_REPR          REDREP         Ir          [  0]    ***   
       REFERENCE            IREFNC         RHF         [  0]    ***   
       RELATIVIST           IRELAT         OFF         [  0]    ***   
       RELAX_DENS           IRDENS         ON          [  1]    ***   
       RESET_FLAGS          IRESET         OFF         [  0]    ***   
       RESTART_CC           ICCRES         OFF         [  0]    ***   
       ROT_EVEC             ROTVEC              0               ***   
       SAVE_INTS            ISVINT         OFF         [  0]    ***   
       SCALE_ON             ISTCRT              0               ***   
       SCF_CONV             ISCFCV          10D- 10             ***   
       SCF_DAMPING          IDAMP               0             x 10-3  
       SCF_EXPORDE          IRPPOR              6               ***   
       SCF_EXPSTAR          IRPPLS              8               ***   
       SCF_EXTRAPO          IRPP           ON          [  1]    ***   
       SCF_MAXCYC           ISCFCY            150              cycles 
       SCF_NOSTOP           ISCFST         OFF         [  0]    ***   
       SCF_PRINT            ISCFPR              0               ***   
       SCF_PROG             ISCFPR         SCF         [  0]    ***   
       SD_FIELD             IFINSD              0             x 10-6  
       SOPERT               IPERSO         OFF         [  0]    ***   
       SPHERICAL            IDFGHI         ON          [  1]    ***   
       SPINORBIT            ISOCAL         OFF         [  0]    ***   
       SPINROTATIO          ISRCON         OFF         [  0]    ***   
       SPIN_FLIP            ISPFLP         OFF         [  0]    ***   
       SPIN_ORBIT           ISPORB         OFF         [  0]    ***   
       SPIN_SCAL            ISCSMP         OFF         [  0]    ***   
       STEEPSCALE           ISTPSC              1000          x 10-3  
       SUBGROUP             ISUBGP         DEFAULT     [  0]    ***   
       SUBGRPAXIS           ISBXYZ         X           [  0]    ***   
       SYMMETRY             ISYM           ON          [  0]    ***   
       SYM_CHECK            ISYMCK         OVERRIDE    [  1]    ***   
       T3_EXTRAPOL          IT3EXT         OFF         [  0]    ***   
       T4_EXTRAPOL          IT4EXP         OFF         [  0]    ***   
       TAMP_SUM             IEVERY              5               ***   
       TESTSUITE            ITESTS         OFF         [  0]    ***   
       THERMOCH             ITHERM         OFF         [  0]    ***   
       TOL_CHOLESK          ITOLCH          10D-  4             ***   
       TRANGRAD             IRESRM         OFF         [  0]    ***   
       TRANS_INV            ITRAIN         IGNORE      [  1]    ***   
       TREAT_PERT           ITREAT         SIMULTANEOUS[  0]    ***   
       TRIP_ALGORI          ITRALG         NORMAL      [  0]    ***   
       UIJ_THRESHO          IUIJTH              1               ***   
       UNITS                IUNITS         ANGSTROM    [  0]    ***   
       UNOS                 IUNOS          OFF         [  0]    ***   
       UPDATE_HESS          IHUPDT         ON          [  1]    ***   
       VIBPHASE             ISETPH         STANDARD    [  0]    ***   
       VIBRATION            IVIB           ANALYTIC    [  1]    ***   
       VIB_ALGORIT          IGEALG         STANDARD    [  0]    ***   
       VNATORB              IVNORB         OFF         [  0]    ***   
       VTRAN                IVTRAN         FULL/PARTIAL[  0]    ***   
       XFIELD               IXEFLD              0             x 10-6  
       XFORM_TOL            IXFTOL          10D- 11             ***   
       YFIELD               IYEFLD              0             x 10-6  
       ZFIELD               IZEFLD            ***             x 10-6  
       ZSCALE_EXP           IZEXPS         OFF         [  0]    ***   
    -------------------------------------------------------------------
   2 entries found in Z-matrix 
   Job Title : Carbon Monoxide DBOC calculation                                                
   There are  1 unique internal coordinates.
   Of these,  0 will be optimized.
   User supplied Z-matrix: 
--------------------------------------------------------------------------------
       SYMBOL    BOND      LENGTH    ANGLE     ANGLE     DIHED     ANGLE
                  TO      (ANGST)    WRT      (DEG)      WRT      (DEG)
--------------------------------------------------------------------------------
        C    
        O          1         r    
                  *Initial values for internal coordinates* 
                      Name             Value
                        r               1.3965517241
--------------------------------------------------------------------------------
  read isotopes from ZMAT file 
   Rotational constants (in cm-1): 
          1.2004887991             1.2004887991
   Rotational constants (in MHz): 
      35989.7538318213         35989.7538318213
********************************************************************************
   The full molecular point group is CXv .
   The largest Abelian subgroup of the full molecular point group is C2v .
   The computational point group is C2v .
********************************************************************************
--------------------------------------------------------------------------------
   Analysis of internal coordinates specified by Z-matrix 
--------------------------------------------------------------------------------
   *The nuclear repulsion energy is   18.188012918518517 a.u.
   *There is   1 degree of freedom within the tot. symm. molecular subspace.
   *Z-matrix requests optimization of   0 coordinates.
   *The optimization is constrained.
   *The following   1 parameters can have non-zero 
    derivatives within the totally symmetric subspace:
             r    [ 1]
   *The following   0 parameters are to be optimized:

   *The following coordinates must be varied in an  unconstrained optimization.
             r    [ 1]
--------------------------------------------------------------------------------


 ----------------------------------------------------------------
         Coordinates used in calculation (QCOMP) 
 ----------------------------------------------------------------
 Z-matrix   Atomic            Coordinates (in bohr)
  Symbol    Number           X              Y              Z
 ----------------------------------------------------------------
     C         6        -0.00000000     0.00000000     1.58343095
     O         8         0.00000000     0.00000000    -1.05566988
 ----------------------------------------------------------------
 
   Interatomic distance matrix (Angstroms) 
 
                 C             O    
                [ 1]        [ 2]
  C    [ 1]     0.00000
  O    [ 2]     1.39655     0.00000
 rotcon2
   Rotational constants (in cm-1): 
          1.2004887991             0.0000000000
   Rotational constants (in MHz): 
      35989.7538318213             0.0000000000
  ECPDATA file not present.   Using default ECPDATA. 
  @GTFLGS-I, Hessian will be transformed to curvilinear coordinates.
  There are  218 basis functions.
 @CHECKOUT-I, Total execution time (CPU/WALL):        0.15/       0.21 seconds.
--executable xjoda finished with status     0 in        0.24 seconds (walltime).
 --invoking executable--
/nfs/workspaces/public/cfour_mpi/bin/xvmol
 SERIAL VERSION OF MOLECULE STARTED
********************************************************************************
                    INPUT FROM MOL FILE
********************************************************************************
INTGRL        1    0    1    0    0    0    0    0    0                         
         *** CFOUR Program System (Release V0.1) ***                            
Carbon Monoxide DBOC calculation                                                
    2    2 X  Y       0.10E-08              0    0                              
   9999.00      3.00                                                            
          6.00000000    1    5    1    1    1    1    1                         
C #1  -0.000000000000000   0.000000000000000   1.583430950152600                
   16    9                                                                      
   33980.0000000000       9.100000000000000E-005 -1.900000000000000E-005        
  0.000000000000000E+000  0.000000000000000E+000  0.000000000000000E+000        
  0.000000000000000E+000  0.000000000000000E+000  0.000000000000000E+000        
  0.000000000000000E+000                                                        
   5089.00000000000       7.040000000000000E-004 -1.510000000000000E-004        
  0.000000000000000E+000  0.000000000000000E+000  0.000000000000000E+000        
  0.000000000000000E+000  0.000000000000000E+000  0.000000000000000E+000        
  0.000000000000000E+000                                                        
   1157.00000000000       3.693000000000000E-003 -7.850000000000000E-004        
  0.000000000000000E+000  0.000000000000000E+000  0.000000000000000E+000        
  0.000000000000000E+000  0.000000000000000E+000  0.000000000000000E+000        
  0.000000000000000E+000                                                        
   326.600000000000       1.536000000000000E-002 -3.324000000000000E-003        
  0.000000000000000E+000  0.000000000000000E+000  0.000000000000000E+000        
  0.000000000000000E+000  0.000000000000000E+000  0.000000000000000E+000        
  0.000000000000000E+000                                                        
   106.100000000000       5.292900000000000E-002 -1.151200000000000E-002        
  0.000000000000000E+000  0.000000000000000E+000  0.000000000000000E+000        
  0.000000000000000E+000  0.000000000000000E+000  0.000000000000000E+000        
  0.000000000000000E+000                                                        
   38.1100000000000       0.147043000000000      -3.416000000000000E-002        
  0.000000000000000E+000  0.000000000000000E+000  0.000000000000000E+000        
  0.000000000000000E+000  0.000000000000000E+000  0.000000000000000E+000        
  0.000000000000000E+000                                                        
   14.7500000000000       0.305631000000000      -7.717300000000001E-002        
  0.000000000000000E+000  0.000000000000000E+000  0.000000000000000E+000        
  0.000000000000000E+000  0.000000000000000E+000  0.000000000000000E+000        
  0.000000000000000E+000                                                        
   6.03500000000000       0.399345000000000      -0.141493000000000             
  0.000000000000000E+000  0.000000000000000E+000  0.000000000000000E+000        
  0.000000000000000E+000  0.000000000000000E+000  0.000000000000000E+000        
  0.000000000000000E+000                                                        
   2.53000000000000       0.217051000000000      -0.118019000000000             
  0.000000000000000E+000  0.000000000000000E+000  0.000000000000000E+000        
  0.000000000000000E+000  0.000000000000000E+000  0.000000000000000E+000        
  0.000000000000000E+000                                                        
  0.735500000000000       1.589400000000000E-002  0.273806000000000             
   1.00000000000000       0.000000000000000E+000  0.000000000000000E+000        
  0.000000000000000E+000  0.000000000000000E+000  0.000000000000000E+000        
  0.000000000000000E+000                                                        
  0.290500000000000      -3.084000000000000E-003  0.586510000000000             
  0.000000000000000E+000   1.00000000000000       0.000000000000000E+000        
  0.000000000000000E+000  0.000000000000000E+000  0.000000000000000E+000        
  0.000000000000000E+000                                                        
  0.111100000000000       9.779999999999999E-004  0.285430000000000             
  0.000000000000000E+000  0.000000000000000E+000   1.00000000000000             
  0.000000000000000E+000  0.000000000000000E+000  0.000000000000000E+000        
  0.000000000000000E+000                                                        
   7.21600000000000       0.000000000000000E+000  0.000000000000000E+000        
  0.000000000000000E+000  0.000000000000000E+000  0.000000000000000E+000        
   1.00000000000000       0.000000000000000E+000  0.000000000000000E+000        
  0.000000000000000E+000                                                        
   19.5700000000000       0.000000000000000E+000  0.000000000000000E+000        
  0.000000000000000E+000  0.000000000000000E+000  0.000000000000000E+000        
  0.000000000000000E+000   1.00000000000000       0.000000000000000E+000        
  0.000000000000000E+000                                                        
   53.0730000000000       0.000000000000000E+000  0.000000000000000E+000        
  0.000000000000000E+000  0.000000000000000E+000  0.000000000000000E+000        
  0.000000000000000E+000  0.000000000000000E+000   1.00000000000000             
  0.000000000000000E+000                                                        
  4.145000000000000E-002  0.000000000000000E+000  0.000000000000000E+000        
  0.000000000000000E+000  0.000000000000000E+000  0.000000000000000E+000        
  0.000000000000000E+000  0.000000000000000E+000  0.000000000000000E+000        
   1.00000000000000                                                             
   10    8                                                                      
   34.5100000000000       5.378000000000000E-003  0.000000000000000E+000        
  0.000000000000000E+000  0.000000000000000E+000  0.000000000000000E+000        
  0.000000000000000E+000  0.000000000000000E+000  0.000000000000000E+000        
   7.91500000000000       3.613200000000000E-002  0.000000000000000E+000        
  0.000000000000000E+000  0.000000000000000E+000  0.000000000000000E+000        
  0.000000000000000E+000  0.000000000000000E+000  0.000000000000000E+000        
   2.36800000000000       0.142493000000000       0.000000000000000E+000        
  0.000000000000000E+000  0.000000000000000E+000  0.000000000000000E+000        
  0.000000000000000E+000  0.000000000000000E+000  0.000000000000000E+000        
  0.813200000000000       0.342150000000000        1.00000000000000             
  0.000000000000000E+000  0.000000000000000E+000  0.000000000000000E+000        
  0.000000000000000E+000  0.000000000000000E+000  0.000000000000000E+000        
  0.289000000000000       0.463864000000000       0.000000000000000E+000        
   1.00000000000000       0.000000000000000E+000  0.000000000000000E+000        
  0.000000000000000E+000  0.000000000000000E+000  0.000000000000000E+000        
  0.100700000000000       0.250028000000000       0.000000000000000E+000        
  0.000000000000000E+000   1.00000000000000       0.000000000000000E+000        
  0.000000000000000E+000  0.000000000000000E+000  0.000000000000000E+000        
   8.18200000000000       0.000000000000000E+000  0.000000000000000E+000        
  0.000000000000000E+000  0.000000000000000E+000   1.00000000000000             
  0.000000000000000E+000  0.000000000000000E+000  0.000000000000000E+000        
   24.1860000000000       0.000000000000000E+000  0.000000000000000E+000        
  0.000000000000000E+000  0.000000000000000E+000  0.000000000000000E+000        
   1.00000000000000       0.000000000000000E+000  0.000000000000000E+000        
   71.4940000000000       0.000000000000000E+000  0.000000000000000E+000        
  0.000000000000000E+000  0.000000000000000E+000  0.000000000000000E+000        
  0.000000000000000E+000   1.00000000000000       0.000000000000000E+000        
  3.218000000000000E-002  0.000000000000000E+000  0.000000000000000E+000        
  0.000000000000000E+000  0.000000000000000E+000  0.000000000000000E+000        
  0.000000000000000E+000  0.000000000000000E+000   1.00000000000000             
    6    6                                                                      
   1.84800000000000        1.00000000000000       0.000000000000000E+000        
  0.000000000000000E+000  0.000000000000000E+000  0.000000000000000E+000        
  0.000000000000000E+000                                                        
  0.649000000000000       0.000000000000000E+000   1.00000000000000             
  0.000000000000000E+000  0.000000000000000E+000  0.000000000000000E+000        
  0.000000000000000E+000                                                        
  0.228000000000000       0.000000000000000E+000  0.000000000000000E+000        
   1.00000000000000       0.000000000000000E+000  0.000000000000000E+000        
  0.000000000000000E+000                                                        
   8.65600000000000       0.000000000000000E+000  0.000000000000000E+000        
  0.000000000000000E+000   1.00000000000000       0.000000000000000E+000        
  0.000000000000000E+000                                                        
   33.2130000000000       0.000000000000000E+000  0.000000000000000E+000        
  0.000000000000000E+000  0.000000000000000E+000   1.00000000000000             
  0.000000000000000E+000                                                        
  7.660000000000000E-002  0.000000000000000E+000  0.000000000000000E+000        
  0.000000000000000E+000  0.000000000000000E+000  0.000000000000000E+000        
   1.00000000000000                                                             
    4    4                                                                      
   1.41900000000000        1.00000000000000       0.000000000000000E+000        
  0.000000000000000E+000  0.000000000000000E+000                                
  0.485000000000000       0.000000000000000E+000   1.00000000000000             
  0.000000000000000E+000  0.000000000000000E+000                                
   24.6940000000000       0.000000000000000E+000  0.000000000000000E+000        
   1.00000000000000       0.000000000000000E+000                                
  0.187000000000000       0.000000000000000E+000  0.000000000000000E+000        
  0.000000000000000E+000   1.00000000000000                                     
    2    2                                                                      
   1.01100000000000        1.00000000000000       0.000000000000000E+000        
  0.424000000000000       0.000000000000000E+000   1.00000000000000             
          8.00000000    1    5    1    1    1    1    1                         
O #2   0.000000000000000   0.000000000000000  -1.055669880434988                
   16    9                                                                      
   61420.0000000000       9.000000000000001E-005 -2.000000000000000E-005        
  0.000000000000000E+000  0.000000000000000E+000  0.000000000000000E+000        
  0.000000000000000E+000  0.000000000000000E+000  0.000000000000000E+000        
  0.000000000000000E+000                                                        
   9199.00000000000       6.980000000000001E-004 -1.590000000000000E-004        
  0.000000000000000E+000  0.000000000000000E+000  0.000000000000000E+000        
  0.000000000000000E+000  0.000000000000000E+000  0.000000000000000E+000        
  0.000000000000000E+000                                                        
   2091.00000000000       3.664000000000000E-003 -8.290000000000000E-004        
  0.000000000000000E+000  0.000000000000000E+000  0.000000000000000E+000        
  0.000000000000000E+000  0.000000000000000E+000  0.000000000000000E+000        
  0.000000000000000E+000                                                        
   590.900000000000       1.521800000000000E-002 -3.508000000000000E-003        
  0.000000000000000E+000  0.000000000000000E+000  0.000000000000000E+000        
  0.000000000000000E+000  0.000000000000000E+000  0.000000000000000E+000        
  0.000000000000000E+000                                                        
   192.300000000000       5.242300000000000E-002 -1.215600000000000E-002        
  0.000000000000000E+000  0.000000000000000E+000  0.000000000000000E+000        
  0.000000000000000E+000  0.000000000000000E+000  0.000000000000000E+000        
  0.000000000000000E+000                                                        
   69.3200000000000       0.145921000000000      -3.626100000000000E-002        
  0.000000000000000E+000  0.000000000000000E+000  0.000000000000000E+000        
  0.000000000000000E+000  0.000000000000000E+000  0.000000000000000E+000        
  0.000000000000000E+000                                                        
   26.9700000000000       0.305258000000000      -8.299200000000000E-002        
  0.000000000000000E+000  0.000000000000000E+000  0.000000000000000E+000        
  0.000000000000000E+000  0.000000000000000E+000  0.000000000000000E+000        
  0.000000000000000E+000                                                        
   11.1000000000000       0.398508000000000      -0.152090000000000             
  0.000000000000000E+000  0.000000000000000E+000  0.000000000000000E+000        
  0.000000000000000E+000  0.000000000000000E+000  0.000000000000000E+000        
  0.000000000000000E+000                                                        
   4.68200000000000       0.216980000000000      -0.115331000000000             
  0.000000000000000E+000  0.000000000000000E+000  0.000000000000000E+000        
  0.000000000000000E+000  0.000000000000000E+000  0.000000000000000E+000        
  0.000000000000000E+000                                                        
   1.42800000000000       1.759400000000000E-002  0.288979000000000             
   1.00000000000000       0.000000000000000E+000  0.000000000000000E+000        
  0.000000000000000E+000  0.000000000000000E+000  0.000000000000000E+000        
  0.000000000000000E+000                                                        
  0.554700000000000      -2.502000000000000E-003  0.586128000000000             
  0.000000000000000E+000   1.00000000000000       0.000000000000000E+000        
  0.000000000000000E+000  0.000000000000000E+000  0.000000000000000E+000        
  0.000000000000000E+000                                                        
  0.206700000000000       9.540000000000000E-004  0.277624000000000             
  0.000000000000000E+000  0.000000000000000E+000   1.00000000000000             
  0.000000000000000E+000  0.000000000000000E+000  0.000000000000000E+000        
  0.000000000000000E+000                                                        
   12.9740000000000       0.000000000000000E+000  0.000000000000000E+000        
  0.000000000000000E+000  0.000000000000000E+000  0.000000000000000E+000        
   1.00000000000000       0.000000000000000E+000  0.000000000000000E+000        
  0.000000000000000E+000                                                        
   34.9000000000000       0.000000000000000E+000  0.000000000000000E+000        
  0.000000000000000E+000  0.000000000000000E+000  0.000000000000000E+000        
  0.000000000000000E+000   1.00000000000000       0.000000000000000E+000        
  0.000000000000000E+000                                                        
   93.8810000000000       0.000000000000000E+000  0.000000000000000E+000        
  0.000000000000000E+000  0.000000000000000E+000  0.000000000000000E+000        
  0.000000000000000E+000  0.000000000000000E+000   1.00000000000000             
  0.000000000000000E+000                                                        
  6.959000000000000E-002  0.000000000000000E+000  0.000000000000000E+000        
  0.000000000000000E+000  0.000000000000000E+000  0.000000000000000E+000        
  0.000000000000000E+000  0.000000000000000E+000  0.000000000000000E+000        
   1.00000000000000                                                             
   10    8                                                                      
   63.4200000000000       6.044000000000000E-003  0.000000000000000E+000        
  0.000000000000000E+000  0.000000000000000E+000  0.000000000000000E+000        
  0.000000000000000E+000  0.000000000000000E+000  0.000000000000000E+000        
   14.6600000000000       4.179900000000000E-002  0.000000000000000E+000        
  0.000000000000000E+000  0.000000000000000E+000  0.000000000000000E+000        
  0.000000000000000E+000  0.000000000000000E+000  0.000000000000000E+000        
   4.45900000000000       0.161143000000000       0.000000000000000E+000        
  0.000000000000000E+000  0.000000000000000E+000  0.000000000000000E+000        
  0.000000000000000E+000  0.000000000000000E+000  0.000000000000000E+000        
   1.53100000000000       0.356731000000000        1.00000000000000             
  0.000000000000000E+000  0.000000000000000E+000  0.000000000000000E+000        
  0.000000000000000E+000  0.000000000000000E+000  0.000000000000000E+000        
  0.530200000000000       0.448309000000000       0.000000000000000E+000        
   1.00000000000000       0.000000000000000E+000  0.000000000000000E+000        
  0.000000000000000E+000  0.000000000000000E+000  0.000000000000000E+000        
  0.175000000000000       0.244940000000000       0.000000000000000E+000        
  0.000000000000000E+000   1.00000000000000       0.000000000000000E+000        
  0.000000000000000E+000  0.000000000000000E+000  0.000000000000000E+000        
   14.4750000000000       0.000000000000000E+000  0.000000000000000E+000        
  0.000000000000000E+000  0.000000000000000E+000   1.00000000000000             
  0.000000000000000E+000  0.000000000000000E+000  0.000000000000000E+000        
   42.7300000000000       0.000000000000000E+000  0.000000000000000E+000        
  0.000000000000000E+000  0.000000000000000E+000  0.000000000000000E+000        
   1.00000000000000       0.000000000000000E+000  0.000000000000000E+000        
   126.140000000000       0.000000000000000E+000  0.000000000000000E+000        
  0.000000000000000E+000  0.000000000000000E+000  0.000000000000000E+000        
  0.000000000000000E+000   1.00000000000000       0.000000000000000E+000        
  5.348000000000000E-002  0.000000000000000E+000  0.000000000000000E+000        
  0.000000000000000E+000  0.000000000000000E+000  0.000000000000000E+000        
  0.000000000000000E+000  0.000000000000000E+000   1.00000000000000             
    6    6                                                                      
   3.77500000000000        1.00000000000000       0.000000000000000E+000        
  0.000000000000000E+000  0.000000000000000E+000  0.000000000000000E+000        
  0.000000000000000E+000                                                        
   1.30000000000000       0.000000000000000E+000   1.00000000000000             
  0.000000000000000E+000  0.000000000000000E+000  0.000000000000000E+000        
  0.000000000000000E+000                                                        
  0.444000000000000       0.000000000000000E+000  0.000000000000000E+000        
   1.00000000000000       0.000000000000000E+000  0.000000000000000E+000        
  0.000000000000000E+000                                                        
   14.9270000000000       0.000000000000000E+000  0.000000000000000E+000        
  0.000000000000000E+000   1.00000000000000       0.000000000000000E+000        
  0.000000000000000E+000                                                        
   57.5440000000000       0.000000000000000E+000  0.000000000000000E+000        
  0.000000000000000E+000  0.000000000000000E+000   1.00000000000000             
  0.000000000000000E+000                                                        
  0.154000000000000       0.000000000000000E+000  0.000000000000000E+000        
  0.000000000000000E+000  0.000000000000000E+000  0.000000000000000E+000        
   1.00000000000000                                                             
    4    4                                                                      
   2.66600000000000        1.00000000000000       0.000000000000000E+000        
  0.000000000000000E+000  0.000000000000000E+000                                
  0.859000000000000       0.000000000000000E+000   1.00000000000000             
  0.000000000000000E+000  0.000000000000000E+000                                
   26.4830000000000       0.000000000000000E+000  0.000000000000000E+000        
   1.00000000000000       0.000000000000000E+000                                
  0.324000000000000       0.000000000000000E+000  0.000000000000000E+000        
  0.000000000000000E+000   1.00000000000000                                     
    2    2                                                                      
   1.84600000000000        1.00000000000000       0.000000000000000E+000        
  0.714000000000000       0.000000000000000E+000   1.00000000000000             
FINISH                                                                          
 
********************************************************************************
 ONE- AND TWO-ELECTRON INTEGRALS OVER SYMMETRY-ADAPTED AOS ARE CALCULATED.

  SPHERICAL HARMONICS ARE USED.
  
  INTEGRALS LESS THAN  0.10E-13 ARE NEGLECTED.

  NUCLEAR REPULSION ENERGY :   18.1880129185 A.U.
  @MOLECU-I, ONE ELECTRON INTEGRALS (CPU/WALL):        0.08/       0.09 SECONDS.
  @TWOEL-I,    4497886 INTEGRALS OF SYMMETRY TYPE  I I I I
  @TWOEL-I,   19389719 INTEGRALS OF SYMMETRY TYPE  I J I J
  @TWOEL-I,   10209254 INTEGRALS OF SYMMETRY TYPE  I I J J
  @TWOEL-I,   14352738 INTEGRALS OF SYMMETRY TYPE  I J K L
  @TWOEL-I, TOTAL NUMBER OF 2-E INTEGRALS   48449597.
  @MOLECU-I, TWO ELECTRON INTEGRALS (CPU/WALL):      233.64/      31.68 SECONDS.
 @CHECKOUT-I, Total execution time (CPU/WALL):      233.73/      31.80 seconds.

Running with 14 threads/proc

--executable xvmol finished with status     0 in       31.83 seconds (walltime).
 --invoking executable--
/nfs/workspaces/public/cfour_mpi/bin/xvmol2ja
 @GETMEM-I,  Allocated    3814 MB of main memory.
 @CHECKOUT-I, Total execution time (CPU/WALL):        0.21/       0.09 seconds.
--executable xvmol2ja finished with status     0 in        0.11 seconds (walltime).
 --invoking executable--
/nfs/workspaces/public/cfour_mpi/bin/xvprop
 @GETMEM-I,  Allocated    3814 MB of main memory.
   Property integrals will be calculated.
    --------------------------------------------------------------
                                   Property evaluated at 
    Property type                X             Y             Z
    --------------------------------------------------------------
    Dipole moment               ----          ----          ----  
    Quadrupole moment           ----          ----          ----  
    Octopole moment             ----          ----          ----  
    Relativisitic corr.         ----          ----          ----  
    Second moment            0.0000000     0.0000000     0.0000000
    Electron density         0.0000000     0.0000000     1.5834310
    Electron density         0.0000000     0.0000000    -1.0556699
    Field gradient           0.0000000     0.0000000     1.5834310
    Field gradient           0.0000000     0.0000000    -1.0556699
    Potential                0.0000000     0.0000000     1.5834310
    Potential                0.0000000     0.0000000    -1.0556699
    --------------------------------------------------------------
 @CHECKOUT-I, Total execution time (CPU/WALL):        1.29/       1.33 seconds.
--executable xvprop finished with status     0 in        1.35 seconds (walltime).
 --invoking executable--
/nfs/workspaces/public/cfour_mpi/bin/xvscf
  There are  218 functions in the AO basis.

  There are 4 irreducible representations.

       Irrep        # of functions
         1                 86
         2                 52
         3                 52
         4                 28


  Parameters for SCF calculation: 
        SCF reference function:  RHF  
  Maximum number of iterations:  150
     Full symmetry point group: CXv 
     Computational point group: C2v 
        Initial density matrix: MOREAD                 
     SCF convergence tolerance: 10**(-10)
  DIIS convergence acceleration:  ON
          Latest start for DIIS:   8
                     DIIS order:   6

  Memory information:    2523578 words required.
  Fock matrices are constructed from AO integral file.
 @GETMEM-I,  Allocated      19 MB of main memory.
  Initialization and symmetry analysis required      0.001 seconds.

  Adding electric field perturbation to one-electron Hamiltonian.
  Field direction     : Z
  Field strength      : -0.0002000 a.u.

  @INITGES-I, Occupancies from core Hamiltonian:

          Alpha population by irrep:   5    1    1    0
           Beta population by irrep:   5    1    1    0


 total no. of electrons in initial guess :  0.000000000000000E+000
  --------------------------------------------------------------------
  Iteration         Total Energy            Largest Density Difference
  --------------------------------------------------------------------
       0            18.188223963849470              0.0000000000D+00
   current occupation vector 
     5  1  1  0
     5  1  1  0
       1           -93.157111839102839              0.1763729144D+02
   current occupation vector 
     5  1  1  0
     5  1  1  0
       2           -98.377233147470804              0.1763462721D+02
   current occupation vector 
     5  1  1  0
     5  1  1  0
       3          -103.312291950468378              0.6691999689D+01
   current occupation vector 
     5  1  1  0
     5  1  1  0
       4           -98.601977313016462              0.6685263396D+01
   current occupation vector 
     5  1  1  0
     5  1  1  0
       5          -101.287809123540498              0.6446705582D+01
   current occupation vector 
     5  1  1  0
     5  1  1  0
       6           -97.024492001991163              0.6433692655D+01
   current occupation vector 
     5  1  1  0
     5  1  1  0
       7          -101.264840010083560              0.6576538084D+01
   current occupation vector 
     5  1  1  0
     5  1  1  0
       8           -96.937771672098918              0.6576544021D+01
   current occupation vector 
     5  1  1  0
     5  1  1  0
       9          -108.165238180747593              0.5044228802D+01
   current occupation vector 
     5  1  1  0
     5  1  1  0
      10          -110.062532363294210              0.9997780633D+00
   current occupation vector 
     5  1  1  0
     5  1  1  0
      11          -112.397857010293151              0.1363874417D+01
   current occupation vector 
     5  1  1  0
     5  1  1  0
      12          -112.658738665109652              0.5148856359D+00
   current occupation vector 
     5  1  1  0
     5  1  1  0
      13          -112.661230674604511              0.8203158627D-01
   current occupation vector 
     5  1  1  0
     5  1  1  0
      14          -112.661728280106800              0.3296575824D-01
   current occupation vector 
     5  1  1  0
     5  1  1  0
      15          -112.661761117575040              0.9426226598D-02
   current occupation vector 
     5  1  1  0
     5  1  1  0
      16          -112.661762584018291              0.2135721033D-02
   current occupation vector 
     5  1  1  0
     5  1  1  0
      17          -112.661762795961906              0.9507136530D-03
   current occupation vector 
     5  1  1  0
     5  1  1  0
      18          -112.661762830440765              0.3831328692D-03
   current occupation vector 
     5  1  1  0
     5  1  1  0
      19          -112.661762831777409              0.9747528370D-04
   current occupation vector 
     5  1  1  0
     5  1  1  0
      20          -112.661762831793354              0.4019347223D-05
   current occupation vector 
     5  1  1  0
     5  1  1  0
      21          -112.661762831795286              0.7019868324D-06
   current occupation vector 
     5  1  1  0
     5  1  1  0
      22          -112.661762831795940              0.1245909013D-06
   current occupation vector 
     5  1  1  0
     5  1  1  0
      23          -112.661762831796054              0.2672482347D-07
   current occupation vector 
     5  1  1  0
     5  1  1  0
      24          -112.661762831796224              0.3298035400D-08
   current occupation vector 
     5  1  1  0
     5  1  1  0
      25          -112.661762831794235              0.9087135489D-09
   current occupation vector 
     5  1  1  0
     5  1  1  0
      26          -112.661762831795798              0.3398969994D-09
   current occupation vector 
     5  1  1  0
     5  1  1  0
      27          -112.661762831795969              0.1766509161D-09
   current occupation vector 
     5  1  1  0
     5  1  1  0

  SCF has converged.

 Density matrix saved to file den.dat
 total electron number:   14.0000000000000     
     E(SCF)=      -112.661762831795684              0.8192535539D-10

  Eigenvector printing suppressed.

 @PUTMOS-I, Writing converged MOs to NEWMOS. 
 @PUTMOS-I, Symmetry   1 Full Blocks 21 Partial Blocksize   2
 @PUTMOS-I, Symmetry   2 Full Blocks 13 Partial Blocksize   0
 @PUTMOS-I, Symmetry   3 Full Blocks 13 Partial Blocksize   0
 @PUTMOS-I, Symmetry   4 Full Blocks  7 Partial Blocksize   0
 @PUTFOCK-I, Writing converged Fock matrix to NEWFOCK. 
 @PUTFOCK-I, Symmetry   1 Full Blocks 21 Partial Blocksize   2
 @PUTFOCK-I, Symmetry   2 Full Blocks 13 Partial Blocksize   0
 @PUTFOCK-I, Symmetry   3 Full Blocks 13 Partial Blocksize   0
 @PUTFOCK-I, Symmetry   4 Full Blocks  7 Partial Blocksize   0


 
  ORBITAL EIGENVALUES (ALPHA)  (1H = 27.2113834 eV)

       MO #        E(hartree)               E(eV)           FULLSYM    COMPSYM
       ----   --------------------   --------------------   -------   ---------
    1     1         -20.6615572890        -562.2295570328     SG+        A1 (1)
    2     2         -11.4678334042        -312.0556115293     SG+        A1 (1)
    3     3          -1.3615389836         -37.0493592969     SG+        A1 (1)
    4     4          -0.7934697213         -21.5914088020     SG+        A1 (1)
    5     5          -0.5620736259         -15.2948009340     SG+        A1 (1)
    6    87          -0.5449267085         -14.8282095902      PI        B1 (2)
    7   139          -0.5449267085         -14.8282095902      PI        B2 (3)
  +++++++++++++++++++++++++++++++++++++++++++++++++++++++++++++++++++++++++++++
    8    88           0.0330870940           0.9003456015      PI        B1 (2)
    9   140           0.0330870940           0.9003456015      PI        B2 (3)
   10     6           0.0633995450           1.7251893267     SG+        A1 (1)
   11     7           0.0685715708           1.8659273034     SG+        A1 (1)
   12    89           0.0898853257           2.4459040600      PI        B1 (2)
   13   141           0.0898853257           2.4459040600      PI        B2 (3)
   14     8           0.1572956364           4.2802318687     SG+        A1 (1)
   15   142           0.1727178927           4.6998927980      PI        B2 (3)
   16    90           0.1727178927           4.6998927980      PI        B1 (2)
   17     9           0.2248477409           6.1184180855     SG+        A1 (1)
   18    10           0.2251348780           6.1262314830      DE        A1 (1)
   19   191           0.2251348780           6.1262314830      DE        A2 (4)
   20   143           0.2970006127           8.0817975435      PI        B2 (3)
   21    91           0.2970006127           8.0817975435      PI        B1 (2)
   22    11           0.2993568849           8.1459149694     SG+        A1 (1)
   23    12           0.3682539486          10.0206993847     SG+        A1 (1)
   24   144           0.3986700351          10.8483631742      PI        B2 (3)
   25    92           0.3986700351          10.8483631742      PI        B1 (2)
   26    13           0.4930421096          13.4163578756     SG+        A1 (1)
   27    14           0.5120040895          13.9323395822     SG+        A1 (1)
   28   192           0.5466509743          14.8751292472      DE        A2 (4)
   29    15           0.5466509743          14.8751292472      DE        A1 (1)
   30   145           0.6253935258          17.0178230060      PI        B2 (3)
   31    93           0.6253935258          17.0178230060      PI        B1 (2)
   32    16           0.7355101848          20.0142496320     SG+        A1 (1)
   33   146           0.7401755079          20.1411995276      PH        B2 (3)
   34    94           0.7401755079          20.1411995276      PH        B1 (2)
   35    17           0.7523270554          20.4718599468      DE        A1 (1)
   36   193           0.7523270554          20.4718599468      DE        A2 (4)
   37    95           0.7929509463          21.5772922182      PI        B1 (2)
   38   147           0.7929509463          21.5772922182      PI        B2 (3)
   39    18           0.8250974461          22.4520429474     SG+        A1 (1)
   40    19           0.8676979011          23.6112602628     SG+        A1 (1)
   41   194           0.8744185624          23.7941387532      DE        A2 (4)
   42    20           0.8744185624          23.7941387533      DE        A1 (1)
   43    96           0.8975915348          24.4247073902      PI        B1 (2)
   44   148           0.8975915348          24.4247073902      PI        B2 (3)
   45    97           1.0341825151          28.1415369237      PI        B1 (2)
   46   149           1.0341825151          28.1415369238      PI        B2 (3)
   47    21           1.1224972034          30.5447017675     SG+        A1 (1)
   48    22           1.4016476668          38.1407720525     SG+        A1 (1)
   49    98           1.4293048111          38.8933612115      PH        B1 (2)
   50   150           1.4293048111          38.8933612115      PH        B2 (3)
   51   151           1.5564990137          42.3544914234      PI        B2 (3)
   52    99           1.5564990137          42.3544914234      PI        B1 (2)
   53    23           1.5622146708          42.5100223597      DE        A1 (1)
   54   195           1.5622146708          42.5100223597      DE        A2 (4)
   55    24           1.6339226510          44.4612957020     SG+        A1 (1)
   56   100           1.6497502752          44.8919872515      PI        B1 (2)
   57   152           1.6497502752          44.8919872515      PI        B2 (3)
   58   196           1.7184827808          46.7622938143      DE        A2 (4)
   59    25           1.7184827808          46.7622938143      DE        A1 (1)
   60    26           1.8774001193          51.0866544425     SG+        A1 (1)
   61    27           2.0109980989          54.7220402867     SG+        A1 (1)
   62   101           2.0826327356          56.6713178497      PI        B1 (2)
   63   153           2.0826327356          56.6713178497      PI        B2 (3)
   64   197           2.0847290742          56.7283621238      PI        A2 (4)
   65    28           2.0847290742          56.7283621238      PI        A1 (1)
   66   198           2.1506141909          58.5211872931      DE        A2 (4)
   67    29           2.1506141909          58.5211872931      DE        A1 (1)
   68   102           2.2262018557          60.5780322218      PH        B1 (2)
   69   154           2.2262018557          60.5780322218      PH        B2 (3)
   70   103           2.2652597195          61.6408507282      PI        B1 (2)
   71   155           2.2652597195          61.6408507282      PI        B2 (3)
   72   156           2.2689694219          61.7417968622      PH        B2 (3)
   73   104           2.2689694219          61.7417968622      PH        B1 (2)
   74    30           2.2730130594          61.8518298313     SG+        A1 (1)
   75    31           2.3167884296          63.0430182139      DE        A1 (1)
   76   199           2.3167884296          63.0430182139      DE        A2 (4)
   77    32           2.4979760081          67.9733828802     SG+        A1 (1)
   78   105           2.5267177417          68.7554852122      PI        B1 (2)
   79   157           2.5267177417          68.7554852122      PI        B2 (3)
   80    33           2.6164774184          71.1979701897     SG+        A1 (1)
   81   106           2.6486947950          72.0746495775      PI        B1 (2)
   82   158           2.6486947950          72.0746495775      PI        B2 (3)
   83    34           2.7833417835          75.7385804037      DE        A1 (1)
   84   200           2.7833417835          75.7385804037      DE        A2 (4)
   85    35           3.2525233960          88.5056611461     SG+        A1 (1)
   86   107           3.5738796352          97.2502089781      PI        B1 (2)
   87   159           3.5738796352          97.2502089781      PI        B2 (3)
   88    36           3.7011852101         100.7143697860      PI        A1 (1)
   89   201           3.7011852101         100.7143697860      PI        A2 (4)
   90    37           3.9011578302         106.1559014217     SG+        A1 (1)
   91   108           4.0227702237         109.4651428871      PH        B1 (2)
   92   160           4.0227702237         109.4651428871      PH        B2 (3)
   93   109           4.1264717063         112.2870036882      PH        B1 (2)
   94   161           4.1264717063         112.2870036882      PH        B2 (3)
   95   162           4.1692823133         113.4519395305      PI        B2 (3)
   96   110           4.1692823133         113.4519395305      PI        B1 (2)
   97    38           4.2086688777         114.5237024357     SG+        A1 (1)
   98    39           4.2212490625         114.8660266658      DE        A1 (1)
   99   202           4.2212490625         114.8660266658      DE        A2 (4)
  100   203           4.2792947928         116.4455312888      DE        A2 (4)
  101    40           4.2792947928         116.4455312888      DE        A1 (1)
  102    41           4.4010013875         119.7573360989     SG+        A1 (1)
  103   111           4.7228338819         128.5148434944      PI        B1 (2)
  104   163           4.7228338819         128.5148434944      PI        B2 (3)
  105    42           4.8859153299         132.9525153014      DE        A1 (1)
  106   204           4.8859153299         132.9525153014      DE        A2 (4)
  107    43           4.9335913164         134.2498448501     SG+        A1 (1)
  108   112           5.0769027287         138.1495466356      PI        B1 (2)
  109   164           5.0769027287         138.1495466356      PI        B2 (3)
  110    44           5.3788177826         146.3650729222     SG+        A1 (1)
  111   165           5.4834408184         149.2120104599      PI        B2 (3)
  112   113           5.4834408184         149.2120104600      PI        B1 (2)
  113   205           5.8585114887         159.4182022727      PI        A2 (4)
  114    45           5.8585114887         159.4182022727      PI        A1 (1)
  115   166           5.9546122147         162.0332359720      PH        B2 (3)
  116   114           5.9546122147         162.0332359720      PH        B1 (2)
  117    46           6.1706251269         167.9112461461     SG+        A1 (1)
  118   206           6.1932569097         168.5270882652      DE        A2 (4)
  119    47           6.1932569097         168.5270882652      DE        A1 (1)
  120   167           6.2183443663         169.2097526640      PI        B2 (3)
  121   115           6.2183443663         169.2097526640      PI        B1 (2)
  122    48           6.3296008726         172.2371961130     SG+        A1 (1)
  123   168           6.3923183399         173.9438251619      PH        B2 (3)
  124   116           6.3923183399         173.9438251619      PH        B1 (2)
  125   207           6.5246064579         177.5435678587      DE        A2 (4)
  126    49           6.5246064579         177.5435678587      DE        A1 (1)
  127    50           6.5728207099         178.8555443577      DE        A1 (1)
  128   208           6.5728207099         178.8555443577      DE        A2 (4)
  129   169           6.9905352908         190.2221359698      PI        B2 (3)
  130   117           6.9905352908         190.2221359698      PI        B1 (2)
  131    51           7.2870416551         198.2904843298     SG+        A1 (1)
  132   170           7.7034954430         209.6227680210      PI        B2 (3)
  133   118           7.7034954431         209.6227680210      PI        B1 (2)
  134    52           8.2884396204         225.5399082980     SG+        A1 (1)
  135    53           9.7717523427         265.9028994871     SG+        A1 (1)
  136   119           9.9759221146         271.4586414276      PI        B1 (2)
  137   171           9.9759221146         271.4586414277      PI        B2 (3)
  138   209          10.6266684518         289.1663495062      PI        A2 (4)
  139    54          10.6266684518         289.1663495062      PI        A1 (1)
  140   120          10.7691476765         293.0434063160      PH        B1 (2)
  141   172          10.7691476765         293.0434063160      PH        B2 (3)
  142    55          10.7749385861         293.2009849774     SG+        A1 (1)
  143    56          11.0036082359         299.4234024917      DE        A1 (1)
  144   210          11.0036082359         299.4234024917      DE        A2 (4)
  145   121          11.0711553906         301.2614540137      PI        B1 (2)
  146   173          11.0711553906         301.2614540137      PI        B2 (3)
  147    57          11.3679480886         309.3375939094     SG+        A1 (1)
  148   122          11.8686609126         322.9626825363      PH        B1 (2)
  149   174          11.8686609126         322.9626825363      PH        B2 (3)
  150   211          12.0658737322         328.3291161829      DE        A2 (4)
  151    58          12.0658737322         328.3291161831      DE        A1 (1)
  152   123          12.5987473783         342.8293452717      PI        B1 (2)
  153   175          12.5987473783         342.8293452717      PI        B2 (3)
  154   212          12.7612723688         347.2518751001      DE        A2 (4)
  155    59          12.7612723688         347.2518751001      DE        A1 (1)
  156    60          12.8955563393         350.9059277063     SG+        A1 (1)
  157   176          13.1299722798         357.2847097370      PI        B2 (3)
  158   124          13.1299722798         357.2847097370      PI        B1 (2)
  159    61          13.9989484742         380.9307541292     SG+        A1 (1)
  160    62          17.5259844327         476.9062818599     SG+        A1 (1)
  161   177          18.9021262633         514.3530048250      PI        B2 (3)
  162   125          18.9021262633         514.3530048252      PI        B1 (2)
  163    63          20.3111931586         552.6956643504     SG+        A1 (1)
  164   213          26.3347788076         716.6057628878      DE        A2 (4)
  165    64          26.3347788076         716.6057628878      DE        A1 (1)
  166   178          26.7469003253         727.8201595137      PI        B2 (3)
  167   126          26.7469003253         727.8201595137      PI        B1 (2)
  168    65          27.2720323629         742.1097287245     SG+        A1 (1)
  169   127          33.6279260755         915.0623893878      PI        B1 (2)
  170   179          33.6279260755         915.0623893885      PI        B2 (3)
  171    66          34.3756582670         935.4092167316     SG+        A1 (1)
  172    67          36.0195106116         980.1407131322     SG+        A1 (1)
  173    68          47.0790048650        1281.0848514712      DE        A1 (1)
  174   214          47.0790048650        1281.0848514713      DE        A2 (4)
  175   180          47.2736635591        1286.3817838284      PI        B2 (3)
  176   128          47.2736635591        1286.3817838284      PI        B1 (2)
  177    69          47.8083006445        1300.9299985407     SG+        A1 (1)
  178    70          63.9145437506        1739.2031548343     SG+        A1 (1)
  179   181          66.4489346564        1808.1674374581      PI        B2 (3)
  180   129          66.4489346565        1808.1674374583      PI        B1 (2)
  181    71          67.4597173953        1835.6722340992     SG+        A1 (1)
  182   130          98.5634765075        2682.0485484823      PH        B1 (2)
  183   182          98.5634765075        2682.0485484823      PH        B2 (3)
  184    72          98.5771118005        2682.4195836679      DE        A1 (1)
  185   215          98.5771118005        2682.4195836679      DE        A2 (4)
  186   183          98.5979584092        2682.9868487309      PI        B2 (3)
  187   131          98.5979584092        2682.9868487309      PI        B1 (2)
  188    73          98.6179843293        2683.5317817206     SG+        A1 (1)
  189   184         103.2902418708        2810.6703730252      PH        B2 (3)
  190   132         103.2902418708        2810.6703730252      PH        B1 (2)
  191    74         103.3067162982        2811.1186649863      DE        A1 (1)
  192   216         103.3067162983        2811.1186649886      DE        A2 (4)
  193   185         103.3507869597        2812.3178886534      PI        B2 (3)
  194   133         103.3507869597        2812.3178886534      PI        B1 (2)
  195    75         103.3541305922        2812.4088735185     SG+        A1 (1)
  196    76         115.0265071565        3130.0303873996      DE        A1 (1)
  197   217         115.0265071565        3130.0303873997      DE        A2 (4)
  198   186         115.2243371510        3135.4136152259      PI        B2 (3)
  199   134         115.2243371510        3135.4136152260      PI        B1 (2)
  200    77         115.5078623134        3143.1287271238     SG+        A1 (1)
  201   135         116.9015236743        3181.0521807446      PI        B1 (2)
  202   187         116.9015236743        3181.0521807452      PI        B2 (3)
  203    78         117.5154219461        3197.7572019873     SG+        A1 (1)
  204    79         122.2063687568        3325.4043541634     SG+        A1 (1)
  205    80         198.5522642530        5402.8817875275      DE        A1 (1)
  206   218         198.5522642530        5402.8817875276      DE        A2 (4)
  207   188         198.6570200274        5405.7323370683      PI        B2 (3)
  208   136         198.6570200275        5405.7323370685      PI        B1 (2)
  209    81         198.9379270616        5413.3762060745     SG+        A1 (1)
  210    82         216.4456571325        5889.7857614984     SG+        A1 (1)
  211   189         224.9105012694        6120.1258807276      PI        B2 (3)
  212   137         224.9105012694        6120.1258807278      PI        B1 (2)
  213    83         225.6972957924        6141.5356481514     SG+        A1 (1)
  214   138         395.3813477407       10758.8734425802      PI        B1 (2)
  215   190         395.3813477407       10758.8734425810      PI        B2 (3)
  216    84         395.9070776794       10773.1792815073     SG+        A1 (1)
  217    85         508.8449078747       13846.3738793172     SG+        A1 (1)
  218    86         895.2783649886       24361.7628394294     SG+        A1 (1)


  VSCF finished.

 @CHECKOUT-I, Total execution time (CPU/WALL):       52.47/      12.26 seconds.
--executable xvscf finished with status     0 in       12.30 seconds (walltime).
 --invoking executable--
/nfs/workspaces/public/cfour_mpi/bin/xvtran
 @GETMEM-I,  Allocated    3814 MB of main memory.
  Full RHF integral transformation
  Transformation of IIII integrals :
  1 pass through the AO integral file was required.
     4497886 AO integrals were read.
     8717695 MO integrals were written to HF2.
  Transformation of IIJJ integrals :
  1 pass through the AO integral file was required.
    10209254 AO integrals were read.
    14509121 MO integrals were written to HF2.
  Transformation of IJIJ integrals :
  1 pass through the AO integral file was required.
    19389719 AO integrals were read.
    27126669 MO integrals were written to HF2.
  Transformation of IJKL integrals :
  1 pass through the AO integral file was required.
    14352738 AO integrals were read.
    18321293 MO integrals were written to HF2.
  Summary of active molecular orbitals: 
------------------------------------------------------------------------
 
  Index      Eigenvalue    Symmetry    Index      Eigenvalue    Symmetry
------------------------------------------------------------------------
     1       -20.6615573        1       110         4.1264717        2
     2       -11.4678334        1       111         4.1692823        2
     3        -1.3615390        1       112         4.7228339        2
     4        -0.7934697        1       113         5.0769027        2
     5        -0.5620736        1       114         5.4834408        2
     6        -0.5449267        2       115         5.9546122        2
     7        -0.5449267        3       116         6.2183444        2
     8         0.0633995        1       117         6.3923183        2
     9         0.0685716        1       118         6.9905353        2
    10         0.1572956        1       119         7.7034954        2
    11         0.2248477        1       120         9.9759221        2
    12         0.2251349        1       121        10.7691477        2
    13         0.2993569        1       122        11.0711554        2
    14         0.3682539        1       123        11.8686609        2
    15         0.4930421        1       124        12.5987474        2
    16         0.5120041        1       125        13.1299723        2
    17         0.5466510        1       126        18.9021263        2
    18         0.7355102        1       127        26.7469003        2
    19         0.7523271        1       128        33.6279261        2
    20         0.8250974        1       129        47.2736636        2
    21         0.8676979        1       130        66.4489347        2
    22         0.8744186        1       131        98.5634765        2
    23         1.1224972        1       132        98.5979584        2
    24         1.4016477        1       133       103.2902419        2
    25         1.5622147        1       134       103.3507870        2
    26         1.6339227        1       135       115.2243372        2
    27         1.7184828        1       136       116.9015237        2
    28         1.8774001        1       137       198.6570200        2
    29         2.0109981        1       138       224.9105013        2
    30         2.0847291        1       139       395.3813477        2
    31         2.1506142        1       140         0.0330871        3
    32         2.2730131        1       141         0.0898853        3
    33         2.3167884        1       142         0.1727179        3
    34         2.4979760        1       143         0.2970006        3
    35         2.6164774        1       144         0.3986700        3
    36         2.7833418        1       145         0.6253935        3
    37         3.2525234        1       146         0.7401755        3
    38         3.7011852        1       147         0.7929509        3
    39         3.9011578        1       148         0.8975915        3
    40         4.2086689        1       149         1.0341825        3
    41         4.2212491        1       150         1.4293048        3
    42         4.2792948        1       151         1.5564990        3
    43         4.4010014        1       152         1.6497503        3
    44         4.8859153        1       153         2.0826327        3
    45         4.9335913        1       154         2.2262019        3
    46         5.3788178        1       155         2.2652597        3
    47         5.8585115        1       156         2.2689694        3
    48         6.1706251        1       157         2.5267177        3
    49         6.1932569        1       158         2.6486948        3
    50         6.3296009        1       159         3.5738796        3
    51         6.5246065        1       160         4.0227702        3
    52         6.5728207        1       161         4.1264717        3
    53         7.2870417        1       162         4.1692823        3
    54         8.2884396        1       163         4.7228339        3
    55         9.7717523        1       164         5.0769027        3
    56        10.6266685        1       165         5.4834408        3
    57        10.7749386        1       166         5.9546122        3
    58        11.0036082        1       167         6.2183444        3
    59        11.3679481        1       168         6.3923183        3
    60        12.0658737        1       169         6.9905353        3
    61        12.7612724        1       170         7.7034954        3
    62        12.8955563        1       171         9.9759221        3
    63        13.9989485        1       172        10.7691477        3
    64        17.5259844        1       173        11.0711554        3
    65        20.3111932        1       174        11.8686609        3
    66        26.3347788        1       175        12.5987474        3
    67        27.2720324        1       176        13.1299723        3
    68        34.3756583        1       177        18.9021263        3
    69        36.0195106        1       178        26.7469003        3
    70        47.0790049        1       179        33.6279261        3
    71        47.8083006        1       180        47.2736636        3
    72        63.9145438        1       181        66.4489347        3
    73        67.4597174        1       182        98.5634765        3
    74        98.5771118        1       183        98.5979584        3
    75        98.6179843        1       184       103.2902419        3
    76       103.3067163        1       185       103.3507870        3
    77       103.3541306        1       186       115.2243372        3
    78       115.0265072        1       187       116.9015237        3
    79       115.5078623        1       188       198.6570200        3
    80       117.5154219        1       189       224.9105013        3
    81       122.2063688        1       190       395.3813477        3
    82       198.5522643        1       191         0.2251349        4
    83       198.9379271        1       192         0.5466510        4
    84       216.4456571        1       193         0.7523271        4
    85       225.6972958        1       194         0.8744186        4
    86       395.9070777        1       195         1.5622147        4
    87       508.8449079        1       196         1.7184828        4
    88       895.2783650        1       197         2.0847291        4
    89         0.0330871        2       198         2.1506142        4
    90         0.0898853        2       199         2.3167884        4
    91         0.1727179        2       200         2.7833418        4
    92         0.2970006        2       201         3.7011852        4
    93         0.3986700        2       202         4.2212491        4
    94         0.6253935        2       203         4.2792948        4
    95         0.7401755        2       204         4.8859153        4
    96         0.7929509        2       205         5.8585115        4
    97         0.8975915        2       206         6.1932569        4
    98         1.0341825        2       207         6.5246065        4
    99         1.4293048        2       208         6.5728207        4
   100         1.5564990        2       209        10.6266685        4
   101         1.6497503        2       210        11.0036082        4
   102         2.0826327        2       211        12.0658737        4
   103         2.2262019        2       212        12.7612724        4
   104         2.2652597        2       213        26.3347788        4
   105         2.2689694        2       214        47.0790049        4
   106         2.5267177        2       215        98.5771118        4
   107         2.6486948        2       216       103.3067163        4
   108         3.5738796        2       217       115.0265072        4
   109         4.0227702        2       218       198.5522643        4
------------------------------------------------------------------------
  -20.6615572890288       -11.4678334042095       -1.36153898360389     
 -0.793469721277136      -0.562073625921520      -0.544926708511859     
 -0.544926708511848       6.339954501063479E-002  6.857157079943252E-002
  0.157295636381548       0.224847740944867       0.225134878038248     
  0.299356884933603       0.368253948628440       0.493042109561188     
  0.512004089518250       0.546650974281958       0.735510184754971     
  0.752327055404740       0.825097446072690       0.867697901120723     
  0.874418562389559        1.12249720341236        1.40164766678195     
   1.56221467078050        1.63392265098988        1.71848278078680     
   1.87740011933835        2.01099809893035        2.08472907422340     
   2.15061419086328        2.27301305935389        2.31678842957664     
   2.49797600809263        2.61647741840716        2.78334178348611     
   3.25252339600452        3.70118521008257        3.90115783020747     
   4.20866887773647        4.22124906247193        4.27929479280958     
   4.40100138748925        4.88591532988321        4.93359131642128     
   5.37881778264152        5.85851148871374        6.17062512691319     
   6.19325690972492        6.32960087259079        6.52460645785166     
   6.57282070994252        7.28704165513930        8.28843962038166     
   9.77175234270021        10.6266684517862        10.7749385860850     
   11.0036082359440        11.3679480885703        12.0658737322074     
   12.7612723688329        12.8955563393481        13.9989484742323     
[...]
 Convergence information after    14 iterations: 
 Largest element of residual vector : -0.10525977E-05.
 Largest element of DIIS residual   : -0.64848654E-06.
 Convergence information after    15 iterations: 
 Largest element of residual vector : -0.46053549E-06.
 Largest element of DIIS residual   : -0.29731859E-06.
 Convergence information after    16 iterations: 
 Largest element of residual vector : -0.27535054E-06.
 Largest element of DIIS residual   : -0.11917965E-06.
 Convergence information after    17 iterations: 
 Largest element of residual vector : -0.68489022E-07.
 Largest element of DIIS residual   :  0.26814135E-07.
 Perturbed amplitude equations converged in    17 iterations.
  Dominant contributions to perturbed wavefunction:
    7    7  140   28   0.2464286590 ABAB
    7    7   28  140   0.2464286590 ABAB
    7    7  140   39  -0.2183701644 ABAB
    7    7   39  140  -0.2183701644 ABAB
    7    7  140   54  -0.1714812073 ABAB
    7    7   54  140  -0.1714812073 ABAB
    7    6   28   89   0.1567613688 ABAB
    6    7   89   28   0.1567613688 ABAB
    7    7  140   21  -0.1490555523 ABAB
    7    7   21  140  -0.1490555523 ABAB
    7    7  140   45   0.1443871282 ABAB
    7    7   45  140   0.1443871282 ABAB
    7    7  140   20  -0.1415761812 ABAB
    7    7   20  140  -0.1415761812 ABAB
    7    6   39   89  -0.1395195781 ABAB
    6    7   89   39  -0.1395195781 ABAB
    7    7  141   28   0.1353278666 ABAB
    7    7   28  141   0.1353278666 ABAB
    7    7  140   24   0.1275111601 ABAB
    7    7   24  140   0.1275111601 ABAB
  norm of converged amps    1.90886403740523     
 Starting iterative solution of the perturbed Lambda equations.
 The DIIS procedure is used to accelerate convergence.
 Convergence criterion is 10**(-7).
 Maximum number of iterations is 100.
 Convergence information after     1 iterations: 
 Largest element of residual vector :  0.63267222E-01.
 Largest element of DIIS residual   :  0.63267222E-01.
 Convergence information after     2 iterations: 
 Largest element of residual vector : -0.12412284E-01.
 Largest element of DIIS residual   : -0.83770536E-02.
 Convergence information after     3 iterations: 
 Largest element of residual vector :  0.56676059E-02.
 Largest element of DIIS residual   :  0.51645092E-02.
 Convergence information after     4 iterations: 
 Largest element of residual vector :  0.35800900E-02.
 Largest element of DIIS residual   :  0.31293954E-02.
 Convergence information after     5 iterations: 
 Largest element of residual vector :  0.26081549E-02.
 Largest element of DIIS residual   :  0.16012602E-02.
 Convergence information after     6 iterations: 
 Largest element of residual vector :  0.10796335E-02.
 Largest element of DIIS residual   :  0.45273118E-03.
 Convergence information after     7 iterations: 
 Largest element of residual vector :  0.44083657E-03.
 Largest element of DIIS residual   : -0.16026921E-03.
 Convergence information after     8 iterations: 
 Largest element of residual vector :  0.10818773E-03.
 Largest element of DIIS residual   :  0.81386610E-04.
 Convergence information after     9 iterations: 
 Largest element of residual vector :  0.49355260E-04.
 Largest element of DIIS residual   : -0.13480310E-04.
 Convergence information after    10 iterations: 
 Largest element of residual vector : -0.11047916E-04.
 Largest element of DIIS residual   : -0.59052505E-05.
 Convergence information after    11 iterations: 
 Largest element of residual vector : -0.34341849E-05.
 Largest element of DIIS residual   : -0.22556710E-05.
 Convergence information after    12 iterations: 
 Largest element of residual vector : -0.21429328E-05.
 Largest element of DIIS residual   : -0.17158942E-05.
 Convergence information after    13 iterations: 
 Largest element of residual vector : -0.12691938E-05.
 Largest element of DIIS residual   : -0.10162016E-05.
 Convergence information after    14 iterations: 
 Largest element of residual vector : -0.95031212E-06.
 Largest element of DIIS residual   : -0.74075194E-06.
 Convergence information after    15 iterations: 
 Largest element of residual vector : -0.51657215E-06.
 Largest element of DIIS residual   : -0.32800144E-06.
 Convergence information after    16 iterations: 
 Largest element of residual vector : -0.29705550E-06.
 Largest element of DIIS residual   : -0.14303452E-06.
 Convergence information after    17 iterations: 
 Largest element of residual vector : -0.88947432E-07.
 Largest element of DIIS residual   :  0.38269652E-07.
 Perturbed Lambda equations converged in    17 iterations.
  Dominant contributions to perturbed wavefunction:
    7    7  140   28   0.2220806245 ABAB
    7    7   28  140   0.2220806245 ABAB
    7    7  140   39  -0.1943442261 ABAB
    7    7   39  140  -0.1943442261 ABAB
    7    7  140   54  -0.1557724067 ABAB
    7    7   54  140  -0.1557724067 ABAB
    7    6   28   89   0.1387689593 ABAB
    6    7   89   28   0.1387689593 ABAB
    7    7  140   21  -0.1335789589 ABAB
    7    7   21  140  -0.1335789589 ABAB
    7    7  140   45   0.1283193864 ABAB
    7    7   45  140   0.1283193864 ABAB
    7    7  140   20  -0.1249390537 ABAB
    7    7   20  140  -0.1249390537 ABAB
    7    6   39   89  -0.1220331246 ABAB
    6    7   89   39  -0.1220331246 ABAB
    7    7  141   28   0.1206333792 ABAB
    7    7   28  141   0.1206333792 ABAB
    7    7  140   57   0.1120265219 ABAB
    7    7   57  140   0.1120265219 ABAB
        The DBOC first-order density matrix is being calculated 
             (Symmetry block 3, perturbation   2)
 term   4.04665608120617     
 final tnorm  0.846631012128092     
  norm contr. I: |<0|L dT/dx|0>|^2   0.000000000000000E+000
  norm contr. II: <0|[nabla(1+L)e-T][nabla e^T]|0>   4.04665608120617     
  total norm contribution   4.04665608120617     
 oo  7.184978109557165E-003
 vv  -26.9542849480575     
 vo  6.174784710675556E-002
  Correlated perturbed 1-el contribution to DBOC  -26.8853521228412       cm**-1
  SUM_I |dc_I/dx|^2 contribution to DBOC   13.5376782417476       cm**-1
 
 
  The total diagonal Born-Oppenheimer correction (DBOC) is:      0.0038679450 a.u.
  The total diagonal Born-Oppenheimer correction (DBOC) is:        848.915803 cm-1
 
 Total CC energy including DBOC  -113.184136970144     
 First-order density matrix is being calculated  (Symmetry block 3, perturbation   2)
 Calculation of the contributions of <pq||rs> to dI(i,j)/dx required   3.1 seconds.
 Calculation of the contributions of <pq||rs> to dI(a,b)/dx required  16.2 seconds.
 Calculation of the contributions of <pq||rs> to dI(i,a)/dx required   9.5 seconds.
 First-order Z-vector equations are solved for 1 perturbation.
 Convergence reached after  20 iterations.
        U*G(pq,rs) contribution is being calculated
             (Symmetry block 3, perturbation   2)

 CCSD contribution to force constants 

        0.0000000000        0.0000000000        0.0000000000
        0.0000000000        0.0000000000        0.0000000000
        0.0000000000        0.0000000000        0.0000000000
        0.0000000000        0.0000000000        0.0000000000
        0.0000000000        0.0000000000        0.0000000000
        0.0000000000        0.0000000000        0.0000000000
        0.0000000000        0.0000000000        0.0000000000
        0.0000000000        0.0000000000        0.0000000000
        0.0000000000        0.0000000000        0.0000000000
        0.0000000000        0.0000000000        0.0000000000
        0.0000000000        0.0000000000        0.0000000000
        0.0000000000        0.3331665637       -0.3331665637

 CCSD contribution to dipole derivatives 

        0.0000000000        0.0000000000        0.0000000000
        0.0000000000        0.0000000000        0.0000000000
        0.0000000000        0.0000000000        0.0000000000
        0.0000000000        0.0000000000       -0.0542286167
        0.0000000000        0.0000000000        0.0000000000
        0.0000000000        0.0000000000        0.0000000000
 @CHECKOUT-I, Total execution time (CPU/WALL):     1339.74/     501.08 seconds.
--executable xsdcc finished with status     0 in      501.31 seconds (walltime).
 --invoking executable--
/nfs/workspaces/public/cfour_mpi/bin/xanti
 @GETMEM-I,  Allocated    3814 MB of main memory.
 CCSD MO derivative gammas will be sorted to Mulliken order.
 @CHECKOUT-I, Total execution time (CPU/WALL):       15.28/      51.23 seconds.
--executable xanti finished with status     0 in       51.39 seconds (walltime).
 --invoking executable--
/nfs/workspaces/public/cfour_mpi/bin/xbcktrn
 @GETMEM-I,  Allocated    3814 MB of main memory.
 CCSD MO derivative gammas will be transformed to the AO basis.
 @CHECKOUT-I, Total execution time (CPU/WALL):       28.68/       4.75 seconds.
--executable xbcktrn finished with status     0 in        4.81 seconds (walltime).
 --invoking executable--
/nfs/workspaces/public/cfour_mpi/bin/xvdint
 @GETMEM-I,  Allocated    3814 MB of main memory.
 One- and two-electron integral derivatives are calculated
 for RHF-CC/MBPT hessians and dipole derivatives.
 Spherical gaussians are used.
  magnet F F
                    8722  records have been written to the Sort file.
  Total length of Sort file :             178609116  words.
 Evaluation of 2el integral derivatives

                      Two-electron integral gradient
                      ------------------------------

                         C #1 z     0.0000000000
                         O #2 z     0.0000000000


 C #1       0.0000000000           -0.0651229502            0.0000000000
 O #2       0.0000000000            0.0651229502            0.0000000000


 Evaluation of 2e integral derivatives required  353.08 seconds.
  contribution to Hessian
        0.0000000000        0.0000000000        0.0000000000
        0.0000000000       -0.0651229502        0.0651229502
 @CHECKOUT-I, Total execution time (CPU/WALL):      353.07/      71.84 seconds.
--executable xvdint finished with status     0 in       72.01 seconds (walltime).
 --invoking executable--
/nfs/workspaces/public/cfour_mpi/bin/xanti
 @GETMEM-I,  Allocated    3814 MB of main memory.
 CCSD MO gammas will be sorted to Mulliken order.
 @CHECKOUT-I, Total execution time (CPU/WALL):       16.72/      65.79 seconds.
--executable xanti finished with status     0 in       65.97 seconds (walltime).
 --invoking executable--
/nfs/workspaces/public/cfour_mpi/bin/xbcktrn
 @GETMEM-I,  Allocated    3814 MB of main memory.
 CCSD MO gammas will be transformed to the AO basis.
 @CHECKOUT-I, Total execution time (CPU/WALL):       55.38/      11.00 seconds.
--executable xbcktrn finished with status     0 in       11.07 seconds (walltime).
 --invoking executable--
/nfs/workspaces/public/cfour_mpi/bin/xvdint
 @GETMEM-I,  Allocated    3814 MB of main memory.
 One- and two-electron integral derivatives are calculated
 for RHF-CC/MBPT hessians and dipole derivatives.
 Spherical gaussians are used.
  magnet F F

                     Kinetic energy integral gradient
                     --------------------------------

                         C #1 z    -0.8272382323
                         O #2 z     0.8272382323


 C #1       0.0000000000            0.0000000000           -0.8272382323
 O #2       0.0000000000            0.0000000000            0.8272382323



                   Nuclear attraction integral gradient
                   ------------------------------------

                         C #1 z    17.1944224780
                         O #2 z   -17.1944224780


 C #1       0.0000000000            0.0000000000           17.1944224780
 O #2       0.0000000000            0.0000000000          -17.1944224780



                      Reorthonormalization gradient
                      -----------------------------

                         C #1 z     0.0000000000
                         O #2 z     0.0000000000


 C #1       0.0000000000            0.0000000000            0.0000000000
 O #2       0.0000000000            0.0000000000            0.0000000000



                     Kinetic energy integral Hessian
                     -------------------------------


           Symmetry 1

           C #1 z      O #2 z

 C #1 z    0.826658
 O #2 z   -0.826658    0.826658


           Symmetry 2

           C #1 x      O #2 x

 C #1 x   -0.775958
 O #2 x    0.775958   -0.775958


           Symmetry 3

           C #1 y      O #2 y

 C #1 y   -0.775958
 O #2 y    0.775958   -0.775958




           C #1 x      C #1 y      C #1 z      O #2 x      O #2 y      O #2 z

 C #1 x   -0.775958
 C #1 y    0.000000   -0.775958
 C #1 z    0.000000    0.000000    0.826658

 O #2 x    0.775958    0.000000    0.000000   -0.775958
 O #2 y    0.000000    0.775958    0.000000    0.000000   -0.775958
 O #2 z    0.000000    0.000000   -0.826658    0.000000    0.000000    0.826658




                   Nuclear attraction integral Hessian
                   -----------------------------------


           Symmetry 1

           C #1 z      O #2 z

 C #1 z  -10.652461
 O #2 z   10.652461  -10.652461


           Symmetry 2

           C #1 x      O #2 x

 C #1 x   11.174949
 O #2 x  -11.174949   11.174949


           Symmetry 3

           C #1 y      O #2 y

 C #1 y   11.174949
 O #2 y  -11.174949   11.174949




           C #1 x      C #1 y      C #1 z      O #2 x      O #2 y      O #2 z

 C #1 x   11.174949
 C #1 y    0.000000   11.174949
 C #1 z    0.000000    0.000000  -10.652461

 O #2 x  -11.174949    0.000000    0.000000   11.174949
 O #2 y    0.000000  -11.174949    0.000000    0.000000   11.174949
 O #2 z    0.000000    0.000000   10.652461    0.000000    0.000000  -10.652461




                Highest order reorthonormalization Hessian
                ------------------------------------------


           Symmetry 1

           C #1 z      O #2 z

 C #1 z    0.000000
 O #2 z    0.000000    0.000000


           Symmetry 2

           C #1 x      O #2 x

 C #1 x    0.000000
 O #2 x    0.000000    0.000000


           Symmetry 3

           C #1 y      O #2 y

 C #1 y    0.000000
 O #2 y    0.000000    0.000000




           C #1 x      C #1 y      C #1 z      O #2 x      O #2 y      O #2 z




                Electronic contributions to dipole moment
                -----------------------------------------

                               au             Debye

                    z     -0.78182357     -1.98719764

  Conversion factor used: 1 a.u. =   2.54174691 Debye 



   Electronic contributions to static part of dipole moment derivatives
   --------------------------------------------------------------------


                     Total dipole moment derivatives
                     -------------------------------


           Symmetry 1
                              Ez

               C #1 z    -5.61792748
               O #2 z    -8.38207252

           Symmetry 2
                              Ex

               C #1 x    -5.68161327
               O #2 x    -8.31838673

           Symmetry 3
                              Ey

               C #1 y    -5.68161327
               O #2 y    -8.31838673



                       Ex          Ey          Ez

      C #1    x   -5.681613    0.000000    0.000000
      C #1    y    0.000000   -5.681613    0.000000
      C #1    z    0.000000    0.000000   -5.617927

      O #2    x   -8.318387    0.000000    0.000000
      O #2    y    0.000000   -8.318387    0.000000
      O #2    z    0.000000    0.000000   -8.382073

 Evaluation of 1e integral derivatives required    1.69 seconds.
                    8815  records have been written to the Sort file.
  Total length of Sort file :             180513570  words.
 Evaluation of 2el integral derivatives

                      Two-electron integral gradient
                      ------------------------------

                         C #1 z    -8.8046891850
                         O #2 z     8.8046891850


 C #1       0.0000000000            0.0000000000           -8.8046891850
 O #2       0.0000000000            0.0000000000            8.8046891850


 Evaluation of 2e integral derivatives required  717.80 seconds.

                            Molecular gradient
                            ------------------

                         C #1 z     0.6707489373
                         O #2 z    -0.6707489373


 C #1       0.0000000000            0.0000000000            0.6707489373
 O #2       0.0000000000            0.0000000000           -0.6707489373


  Molecular gradient norm 0.949E+00

                            Molecular hessian
                            -----------------


           Symmetry 1

           C #1 z      O #2 z

 C #1 z   31.165336
 O #2 z  -31.165336   31.165336


           Symmetry 2

           C #1 x      O #2 x

 C #1 x    0.018759
 O #2 x   -0.018759    0.018759


           Symmetry 3

           C #1 y      O #2 y

 C #1 y    0.018759
 O #2 y   -0.018759    0.018759




           C #1 x      C #1 y      C #1 z      O #2 x      O #2 y      O #2 z

 C #1 x    0.018759
 C #1 y    0.000000    0.018759
 C #1 z    0.000000    0.000000   31.165336

 O #2 x   -0.018759    0.000000    0.000000    0.018759
 O #2 y    0.000000   -0.018759    0.000000    0.000000    0.018759
 O #2 z    0.000000    0.000000  -31.165336    0.000000    0.000000   31.165336




                           Total dipole moment
                           -------------------

                               au             Debye

                    z      0.27340309      0.69492146

  Conversion factor used: 1 a.u. =   2.54174691 Debye 



                     Total dipole moment derivatives
                     -------------------------------


           Symmetry 1
                              Ez

               C #1 z     0.66938400
               O #2 z    -0.66938400

           Symmetry 2
                              Ex

               C #1 x     0.10697430
               O #2 x    -0.10697430

           Symmetry 3
                              Ey

               C #1 y     0.10697430
               O #2 y    -0.10697430



                       Ex          Ey          Ez

      C #1    x    0.106974    0.000000    0.000000
      C #1    y    0.000000    0.106974    0.000000
      C #1    z    0.000000    0.000000    0.669384

      O #2    x   -0.106974    0.000000    0.000000
      O #2    y    0.000000   -0.106974    0.000000
      O #2    z    0.000000    0.000000   -0.669384

 @CHECKOUT-I, Total execution time (CPU/WALL):      719.47/     126.24 seconds.
--executable xvdint finished with status     0 in      126.41 seconds (walltime).
 --invoking executable--
/nfs/workspaces/public/cfour_mpi/bin/xjoda
  @GTFLGS-I, Hessian will be transformed to curvilinear coordinates.
  @GTFLGS-I, Hessian will be transformed to curvilinear coordinates.
  igrd and ihes are                      0                     1
  gradient from JOBARC 
   0.000000000000000   0.000000000000000   0.670748937279724
   0.000000000000000   0.000000000000000  -0.670748937279724
 
  @PROJFCM-I, Projecting force constant matrix onto totally symmetric subspace.
  Largest difference between matrix elements of symmetrized
  and unsymmetrized FCM :     0.5112751889E-10.
  read isotopes from ZMAT file 
 
  Summary of diagonal Born-Oppenheimer correction at the correlated level
  The total diagonal Born-Oppenheimer correction (DBOC) is:      0.0038679450 a.u.
  The total diagonal Born-Oppenheimer correction (DBOC) is:        848.915803 cm-1
  The total diagonal Born-Oppenheimer correction (DBOC) is:            10.155 kJ/mole
  hellooooooo 
  readis is  F
 
 @CHECKOUT-I, Total execution time (CPU/WALL):        0.01/       0.09 seconds.
--executable xjoda finished with status     0 in        0.14 seconds (walltime).
  The final electronic energy is      -113.184136970143570 a.u. 
  This computation required                         4540.54 seconds (walltime).
