 --invoking executable--
/nfs/workspaces/public/cfour_mpi/bin/xjoda


   *************************************************************************
         <<<     CCCCCC     CCCCCC   |||     CCCCCC     CCCCCC   >>>
       <<<      CCC        CCC       |||    CCC        CCC         >>>
      <<<      CCC        CCC        |||   CCC        CCC            >>>
    <<<        CCC        CCC        |||   CCC        CCC              >>>
      <<<      CCC        CCC        |||   CCC        CCC            >>>
       <<<      CCC        CCC       |||    CCC        CCC         >>>
         <<<     CCCCCC     CCCCCC   |||     CCCCCC     CCCCCC   >>>
   *************************************************************************

     ****************************************************************
     * CFOUR Coupled-Cluster techniques for Computational Chemistry *
     ****************************************************************
 

   Department of Chemistry                Institut fuer Physikalische Chemie
   University of Florida                  Universitaet Mainz
   Gainesville, FL 32611, USA             D-55099 Mainz, Germany

   Department of Chemistry                Fakultaet fuer Chemie und Biowiss.
   Johns Hopkins University               Karlsruher Institut fuer Technologie
   Baltimore, MD 21218, USA               D-76131 Karlsruhe, Germany

   Department of Chemistry                Department of Physical Chemistry
   Southern Methodist University          Eotvos Lorand University
   Dallas, TX 75275, USA                  H-1053 Budapest, Hungary

 
                       Version 2.1
 
                     vincent.theory.phys.ucl.ac.uk                     
                     Sat  1 Mar 07:27:50 GMT 2025                      
                     integer*8 version is running
 
********************************************************************************
*                          Input from ZMAT file                                *
********************************************************************************
Carbon Monoxide DBOC calculation                                                
C                                                                               
O 1 r                                                                           
                                                                                
r=0.9620689655172414                                                            
                                                                                
                                                                                
*CFOUR(CALC=CCSD,BASIS=AUG-PCVQZ,SCF_CONV=10                                    
CC_CONV=14,DBOC=ON,MEMORY=500000000                                             
ZFIELD=-200)                                                                    
                                                                                
%isotopes                                                                       
12                                                                              
18                                                                              
********************************************************************************
  @GTFLGS-I, Hessian will be transformed to curvilinear coordinates.
    -------------------------------------------------------------------
                    CFOUR Control Parameters 
    -------------------------------------------------------------------
        External           Internal           Value            Units
          Name               Name
    -------------------------------------------------------------------
       ABCDTYPE             IABCDT         STANDARD    [  0]    ***   
       ANHARMONIC           IANHAR         OFF         [  0]    ***   
       ANH_ALGORIT          IANALG         STANDARD    [  0]    ***   
       ANH_DERIVAT          IANDER         SECOND      [  1]    ***   
       ANH_MODE             ANHMOD         VIBRATION   [  0]    ***   
       ANH_STEPSIZ          ICUBST             50000          x 10-6  
       ANH_SYMMETR          IANHSM         ABELIAN     [  0]    ***   
       AO_LADDERS           IAOLAD         SINGLEPASS  [  1]    ***   
       AV_SCF               IAVSCF         OFF         [  0]    ***   
       BASIS                IBASIS         AUG-PCVQZ   [ 52]    ***   
       BOTHVECTORS          BOTHVC         OFF         [  0]    ***   
       BOX_POTENT           IPIAB          OFF         [  0]    ***   
       BREIT                IBREIT         OFF         [  0]    ***   
       BRUCK_CONV           IBRTOL          10D-  4             ***   
       BRUECKNER            IBRKNR         OFF         [  0]    ***   
       BUFFERSIZE           IBUFFS              4096            ***   
       CACHE_RECS           ICHREC             10               ***   
       CALCLEVEL            ICLLVL         CCSD        [ 10]    ***   
       CCORBOPT             ICCORB         OFF         [  0]  x 0.01  
       CC_CONV              ICCCNV          10D- 14             ***   
       CC_EXPORDER          ICCEOR              5               ***   
       CC_EXTRAPOL          ICCEXT         DIIS        [  1]    ***   
       CC_GUESS             ICCGES         MP2         [  0]    ***   
       CC_MAXCYC            ICCCYC            100              cycles 
       CC_PROGRAM           ICCPRO         VCC         [  0]    ***   
       CHARGE               ICHRGE              0               ***   
       CHOLESKY             ICHOLE         OFF         [  0]    ***   
       CIS_CONV             ICISTL              5               ***   
       COMM_SIZE            IPSIZE            ***               ***   
       CONSTANT             ICONST         OLD         [  1]    ***   
       CONTINUUM            ICONTU         NONE        [  0]    ***   
       CONTRACTION          ICNTYP         GENERAL     [  1]    ***   
       COORDINATES          ICOORD         INTERNAL    [  0]    ***   
       CPHF_CONVER          ICPHFT          10D- 16             ***   
       CPHF_MAXCYC          ICPHFC             64              cycles 
       CUBIC                ICUBIC         OFF         [  0]    ***   
       CURVILINEAR          ICURVY         ON          [  1]    ***   
       DBOC                 IDBOC          ON          [  1]    ***   
       DCT                  IDCT           OFF         [  0]    ***   
       DERIV_LEV            IDRLVL         SECOND      [  2]    ***   
       DEVMEM_SIZE          IDVMEM          50000000           MByte  
       DIAG_MRCC            IEOMST          10D-  0             ***   
       DIFF_TYPE            IDIFTY         RELAXED     [  0]    ***   
       DIRECT               IDIRCT         OFF         [  0]    ***   
       DROPMO               IDRPMO      NONE         
       ECP                  IECP           OFF         [  0]    ***   
       EIGENVECTOR          IVEC                1               ***   
       EL_ANHARM            IELANH         OFF         [  0]    ***   
       EOMFOLLOW            IEOMSR         ENERGY      [  0]    ***   
       EOMIP                IEOMIP         OFF         [  0]    ***   
       EOMLEVEL             HBARFM         SAME        [  0]    ***   
       EOM_MRCC             IMRCCE         NEW         [  1]    ***   
       EOM_NONIT            EOMNON         OFF         [  0]    ***   
       EOM_NSING            IEOMSI          10D-  0             ***   
       EOM_NSTATES          IMRCCD         DAVIDSON    [  0]    ***   
       EOM_NTRIP            IEOMTR          10D-  0             ***   
       EOM_ORDER            IEXORD         ENERGY      [  0]    ***   
       EOM_PROPSTA          IEOMST              0               ***   
       ESTATE_CONV          IEXTOL          10D-  5             ***   
       ESTATE_DIAG          IEXDIG         ITERATIVE   [  0]    ***   
       ESTATE_LOCK          IESLOC         ON          [  1]    ***   
       ESTATE_MAXC          IEXMXC             40               ***   
       ESTATE_PROP          IEXPRP         OFF         [  0]    ***   
       EVAL_HESS            IRECAL              0            # of cyc.
       EXCITATION           IEXCIT              0               ***   
       EXCITE               IEXCIT         NONE        [  0]    ***   
       EXTERN_POT           IEXPOT         OFF         [  0]    ***   
       FCGRADNEW            IFCGNW         OFF         [  0]    ***   
       FC_FIELD             IFINFC              0             x 10-6  
       FD_CALTYPE           IFDCAL         GRADONLY    [  0]    ***   
       FD_PROJECT           IFDPRJ         OFF         [  1]    ***   
       FD_STEPSIZE          IDISFD              0            10-4 bohr
       FD_USEGROUP          IFDGRP         FULL        [  0]    ***   
       FILE_RECSIZ          IFLREC              4096           words  
       FINITE_PERT          IFIPER              0             x 10-6  
       FIXGEOM              IFIXGM         OFF         [  0]    ***   
       FOCK                 IFOCK          AO          [  1]    ***   
       FREQ_ALGORI          IVIALG         STANDARD    [  0]    ***   
       FROZEN_CORE          IFROCO         OFF         [  0]    ***   
       GAMMA_ABCD           IGABCD         STORE       [  0]    ***   
       GAMMA_ABCI           IGABCI         STORE       [  0]    ***   
       GENBAS_1             IGNBS1              0               ***   
       GENBAS_2             IGNBS2              0               ***   
       GENBAS_3             IGNBS3              0               ***   
       GENBAS_4             IGNBS4              0               ***   
       GEO_CONV             ICONTL              5              H/bohr 
       GEO_MAXCYC           IOPTCY             50               ***   
       GEO_MAXSTEP          IMXSTP            300            millibohr
       GEO_METHOD           INR            SINGLE_POINT[  5]    ***   
       GIAO                 IGIAO          OFF         [  1]    ***   
       GIMIC                IGIMIC         OFF         [  0]    ***   
       GRID                 IGRID          OFF         [  0]    ***   
       GRID_ALGO            IGALGO         SERIAL      [  0]    ***   
       GUESS                IGUESS         MOREAD      [  0]    ***   
       HBAR                 IHBAR          OFF         [  0]    ***   
       HESS_TYPE            IHESTP         SCF         [  0]    ***   
       HF2_FILE             IHF2Fl         USE         [  1]    ***   
       HFSTABILITY          ISTABL         OFF         [  0]    ***   
       INCORE               INCORE         OFF         [  0]    ***   
       INPUT_MRCC           IMRCC          ON          [  1]    ***   
       INTEGRALS            INTTYP         VMOL        [  1]    ***   
       JODA_PRINT           IJPRNT              0               ***   
       KEYWORD_OUT          IDMPKW         NO          [  0]    ***   
       LINDEP_TOL           ILINDP              8               ***   
       LINEQ_CONV           IZTACN          10D-  7           cycles  
       LINEQ_EXPOR          ILMAXD              5               ***   
       LINEQ_MAXCY          ILMAXC            100               ***   
       LINEQ_TYPE           ILTYPE         DIIS        [  1]    ***   
       LOCK_ORBOCC          ILOCOC         OFF         [  0]    ***   
       MEMORY_SIZE          IMEMSZ         500000000           words  
       MEM_UNIT             IMEMU          INTEGERWORDS[  0]    ***   
       MRCC                 IMRCCC         OFF         [  0]    ***   
       MULTIPLICTY          IMULTP              1               ***   
       NACOUPLING           IVCOUP         OFF         [  0]    ***   
       NEGEVAL              IDIE           ABORT       [  0]    ***   
       NEWNORM              INEWNO         OFF         [  0]    ***   
       NON-HF               INONHF         OFF         [  0]    ***   
       NTOP_TAMP            ITOPT2             15               ***   
       NUC_MODEL            INUCMO         POINT       [  0]    ***   
       OCCUPATION           IOCCU   ESTIMATED BY SCF 
       OPEN-SHELL           IOPEN          SPIN-ORBITAL[  0]    ***   
       OPTVIB               IOPTVB         OFF         [  0]    ***   
       ORBITALS             IORBTP         STANDARD    [  0]    ***   
       PARALLEL             IPARAL         ON          [  1]    ***   
       PARA_INT             IPINTS         ON          [  1]    ***   
       PARA_PRINT           IPPRIN              0               ***   
       PERT_ORB             IPTORB         STANDARD    [  0]    ***   
       POINTS               IGRDFD              0               ***   
       PRINT                IPRNT               0               ***   
       PROPS                IPROPS         OFF         [  0]    ***   
       PROP_INTEGR          IINTYP         INTERNAL    [  0]    ***   
       PSI                  IPSI           OFF         [  0]    ***   
       QC_ALG               IQCALG         FLM         [  0]    ***   
       QC_LINALG            IQCLIN         TRIDIAG     [  2]    ***   
       QC_MAXCYC            IQCMAX          10D-100           cycles  
       QC_MAXSCFCY          IQCMSC          10D- 15           cycles  
       QC_RTRUST            IQCRTR          10D-  0           x 10-3  
       QC_SKIPSCF           IQCSKI         OFF         [  0]    ***   
       QC_START             IQCSTA          10D-  1             ***   
       QRHFGUESS            IQGUES         OFF         [  0]    ***   
       QUARTIC              IQUART         OFF         [  0]    ***   
       RAMAN_INT            IRAMIN         OFF         [  0]    ***   
       RAMAN_ORB            IRAMRE         UNRELAXED   [  0]    ***   
       RDO                  IRDOFM         ON          [  1]    ***   
       REDUCE_REPR          REDREP         Ir          [  0]    ***   
       REFERENCE            IREFNC         RHF         [  0]    ***   
       RELATIVIST           IRELAT         OFF         [  0]    ***   
       RELAX_DENS           IRDENS         ON          [  1]    ***   
       RESET_FLAGS          IRESET         OFF         [  0]    ***   
       RESTART_CC           ICCRES         OFF         [  0]    ***   
       ROT_EVEC             ROTVEC              0               ***   
       SAVE_INTS            ISVINT         OFF         [  0]    ***   
       SCALE_ON             ISTCRT              0               ***   
       SCF_CONV             ISCFCV          10D- 10             ***   
       SCF_DAMPING          IDAMP               0             x 10-3  
       SCF_EXPORDE          IRPPOR              6               ***   
       SCF_EXPSTAR          IRPPLS              8               ***   
       SCF_EXTRAPO          IRPP           ON          [  1]    ***   
       SCF_MAXCYC           ISCFCY            150              cycles 
       SCF_NOSTOP           ISCFST         OFF         [  0]    ***   
       SCF_PRINT            ISCFPR              0               ***   
       SCF_PROG             ISCFPR         SCF         [  0]    ***   
       SD_FIELD             IFINSD              0             x 10-6  
       SOPERT               IPERSO         OFF         [  0]    ***   
       SPHERICAL            IDFGHI         ON          [  1]    ***   
       SPINORBIT            ISOCAL         OFF         [  0]    ***   
       SPINROTATIO          ISRCON         OFF         [  0]    ***   
       SPIN_FLIP            ISPFLP         OFF         [  0]    ***   
       SPIN_ORBIT           ISPORB         OFF         [  0]    ***   
       SPIN_SCAL            ISCSMP         OFF         [  0]    ***   
       STEEPSCALE           ISTPSC              1000          x 10-3  
       SUBGROUP             ISUBGP         DEFAULT     [  0]    ***   
       SUBGRPAXIS           ISBXYZ         X           [  0]    ***   
       SYMMETRY             ISYM           ON          [  0]    ***   
       SYM_CHECK            ISYMCK         OVERRIDE    [  1]    ***   
       T3_EXTRAPOL          IT3EXT         OFF         [  0]    ***   
       T4_EXTRAPOL          IT4EXP         OFF         [  0]    ***   
       TAMP_SUM             IEVERY              5               ***   
       TESTSUITE            ITESTS         OFF         [  0]    ***   
       THERMOCH             ITHERM         OFF         [  0]    ***   
       TOL_CHOLESK          ITOLCH          10D-  4             ***   
       TRANGRAD             IRESRM         OFF         [  0]    ***   
       TRANS_INV            ITRAIN         IGNORE      [  1]    ***   
       TREAT_PERT           ITREAT         SIMULTANEOUS[  0]    ***   
       TRIP_ALGORI          ITRALG         NORMAL      [  0]    ***   
       UIJ_THRESHO          IUIJTH              1               ***   
       UNITS                IUNITS         ANGSTROM    [  0]    ***   
       UNOS                 IUNOS          OFF         [  0]    ***   
       UPDATE_HESS          IHUPDT         ON          [  1]    ***   
       VIBPHASE             ISETPH         STANDARD    [  0]    ***   
       VIBRATION            IVIB           ANALYTIC    [  1]    ***   
       VIB_ALGORIT          IGEALG         STANDARD    [  0]    ***   
       VNATORB              IVNORB         OFF         [  0]    ***   
       VTRAN                IVTRAN         FULL/PARTIAL[  0]    ***   
       XFIELD               IXEFLD              0             x 10-6  
       XFORM_TOL            IXFTOL          10D- 11             ***   
       YFIELD               IYEFLD              0             x 10-6  
       ZFIELD               IZEFLD            ***             x 10-6  
       ZSCALE_EXP           IZEXPS         OFF         [  0]    ***   
    -------------------------------------------------------------------
   2 entries found in Z-matrix 
   Job Title : Carbon Monoxide DBOC calculation                                                
   There are  1 unique internal coordinates.
   Of these,  0 will be optimized.
   User supplied Z-matrix: 
--------------------------------------------------------------------------------
       SYMBOL    BOND      LENGTH    ANGLE     ANGLE     DIHED     ANGLE
                  TO      (ANGST)    WRT      (DEG)      WRT      (DEG)
--------------------------------------------------------------------------------
        C    
        O          1         r    
                  *Initial values for internal coordinates* 
                      Name             Value
                        r               0.9620689655
--------------------------------------------------------------------------------
  read isotopes from ZMAT file 
   Rotational constants (in cm-1): 
          2.5296460128             2.5296460128
   Rotational constants (in MHz): 
      75836.8902283436         75836.8902283436
********************************************************************************
   The full molecular point group is CXv .
   The largest Abelian subgroup of the full molecular point group is C2v .
   The computational point group is C2v .
********************************************************************************
--------------------------------------------------------------------------------
   Analysis of internal coordinates specified by Z-matrix 
--------------------------------------------------------------------------------
   *The nuclear repulsion energy is   26.401954236559135 a.u.
   *There is   1 degree of freedom within the tot. symm. molecular subspace.
   *Z-matrix requests optimization of   0 coordinates.
   *The optimization is constrained.
   *The following   1 parameters can have non-zero 
    derivatives within the totally symmetric subspace:
             r    [ 1]
   *The following   0 parameters are to be optimized:

   *The following coordinates must be varied in an  unconstrained optimization.
             r    [ 1]
--------------------------------------------------------------------------------


 ----------------------------------------------------------------
         Coordinates used in calculation (QCOMP) 
 ----------------------------------------------------------------
 Z-matrix   Atomic            Coordinates (in bohr)
  Symbol    Number           X              Y              Z
 ----------------------------------------------------------------
     C         6        -0.00000000     0.00000000     1.09080799
     O         8         0.00000000     0.00000000    -0.72723925
 ----------------------------------------------------------------
 
   Interatomic distance matrix (Angstroms) 
 
                 C             O    
                [ 1]        [ 2]
  C    [ 1]     0.00000
  O    [ 2]     0.96207     0.00000
 rotcon2
   Rotational constants (in cm-1): 
          2.5296460128             0.0000000000
   Rotational constants (in MHz): 
      75836.8902283436             0.0000000000
  ECPDATA file not present.   Using default ECPDATA. 
  @GTFLGS-I, Hessian will be transformed to curvilinear coordinates.
  There are  218 basis functions.
 @CHECKOUT-I, Total execution time (CPU/WALL):        0.34/       1.99 seconds.
--executable xjoda finished with status     0 in        2.05 seconds (walltime).
 --invoking executable--
/nfs/workspaces/public/cfour_mpi/bin/xvmol
 SERIAL VERSION OF MOLECULE STARTED
********************************************************************************
                    INPUT FROM MOL FILE
********************************************************************************
INTGRL        1    0    1    0    0    0    0    0    0                         
         *** CFOUR Program System (Release V0.1) ***                            
Carbon Monoxide DBOC calculation                                                
    2    2 X  Y       0.10E-08              0    0                              
   9999.00      3.00                                                            
          6.00000000    1    5    1    1    1    1    1                         
C #1  -0.000000000000000   0.000000000000000   1.090807987882902                
   16    9                                                                      
   33980.0000000000       9.100000000000000E-005 -1.900000000000000E-005        
  0.000000000000000E+000  0.000000000000000E+000  0.000000000000000E+000        
  0.000000000000000E+000  0.000000000000000E+000  0.000000000000000E+000        
  0.000000000000000E+000                                                        
   5089.00000000000       7.040000000000000E-004 -1.510000000000000E-004        
  0.000000000000000E+000  0.000000000000000E+000  0.000000000000000E+000        
  0.000000000000000E+000  0.000000000000000E+000  0.000000000000000E+000        
  0.000000000000000E+000                                                        
   1157.00000000000       3.693000000000000E-003 -7.850000000000000E-004        
  0.000000000000000E+000  0.000000000000000E+000  0.000000000000000E+000        
  0.000000000000000E+000  0.000000000000000E+000  0.000000000000000E+000        
  0.000000000000000E+000                                                        
   326.600000000000       1.536000000000000E-002 -3.324000000000000E-003        
  0.000000000000000E+000  0.000000000000000E+000  0.000000000000000E+000        
  0.000000000000000E+000  0.000000000000000E+000  0.000000000000000E+000        
  0.000000000000000E+000                                                        
   106.100000000000       5.292900000000000E-002 -1.151200000000000E-002        
  0.000000000000000E+000  0.000000000000000E+000  0.000000000000000E+000        
  0.000000000000000E+000  0.000000000000000E+000  0.000000000000000E+000        
  0.000000000000000E+000                                                        
   38.1100000000000       0.147043000000000      -3.416000000000000E-002        
  0.000000000000000E+000  0.000000000000000E+000  0.000000000000000E+000        
  0.000000000000000E+000  0.000000000000000E+000  0.000000000000000E+000        
  0.000000000000000E+000                                                        
   14.7500000000000       0.305631000000000      -7.717300000000001E-002        
  0.000000000000000E+000  0.000000000000000E+000  0.000000000000000E+000        
  0.000000000000000E+000  0.000000000000000E+000  0.000000000000000E+000        
  0.000000000000000E+000                                                        
   6.03500000000000       0.399345000000000      -0.141493000000000             
  0.000000000000000E+000  0.000000000000000E+000  0.000000000000000E+000        
  0.000000000000000E+000  0.000000000000000E+000  0.000000000000000E+000        
  0.000000000000000E+000                                                        
   2.53000000000000       0.217051000000000      -0.118019000000000             
  0.000000000000000E+000  0.000000000000000E+000  0.000000000000000E+000        
  0.000000000000000E+000  0.000000000000000E+000  0.000000000000000E+000        
  0.000000000000000E+000                                                        
  0.735500000000000       1.589400000000000E-002  0.273806000000000             
   1.00000000000000       0.000000000000000E+000  0.000000000000000E+000        
  0.000000000000000E+000  0.000000000000000E+000  0.000000000000000E+000        
  0.000000000000000E+000                                                        
  0.290500000000000      -3.084000000000000E-003  0.586510000000000             
  0.000000000000000E+000   1.00000000000000       0.000000000000000E+000        
  0.000000000000000E+000  0.000000000000000E+000  0.000000000000000E+000        
  0.000000000000000E+000                                                        
  0.111100000000000       9.779999999999999E-004  0.285430000000000             
  0.000000000000000E+000  0.000000000000000E+000   1.00000000000000             
  0.000000000000000E+000  0.000000000000000E+000  0.000000000000000E+000        
  0.000000000000000E+000                                                        
   7.21600000000000       0.000000000000000E+000  0.000000000000000E+000        
  0.000000000000000E+000  0.000000000000000E+000  0.000000000000000E+000        
   1.00000000000000       0.000000000000000E+000  0.000000000000000E+000        
  0.000000000000000E+000                                                        
   19.5700000000000       0.000000000000000E+000  0.000000000000000E+000        
  0.000000000000000E+000  0.000000000000000E+000  0.000000000000000E+000        
  0.000000000000000E+000   1.00000000000000       0.000000000000000E+000        
  0.000000000000000E+000                                                        
   53.0730000000000       0.000000000000000E+000  0.000000000000000E+000        
  0.000000000000000E+000  0.000000000000000E+000  0.000000000000000E+000        
  0.000000000000000E+000  0.000000000000000E+000   1.00000000000000             
  0.000000000000000E+000                                                        
  4.145000000000000E-002  0.000000000000000E+000  0.000000000000000E+000        
  0.000000000000000E+000  0.000000000000000E+000  0.000000000000000E+000        
  0.000000000000000E+000  0.000000000000000E+000  0.000000000000000E+000        
   1.00000000000000                                                             
   10    8                                                                      
   34.5100000000000       5.378000000000000E-003  0.000000000000000E+000        
  0.000000000000000E+000  0.000000000000000E+000  0.000000000000000E+000        
  0.000000000000000E+000  0.000000000000000E+000  0.000000000000000E+000        
   7.91500000000000       3.613200000000000E-002  0.000000000000000E+000        
  0.000000000000000E+000  0.000000000000000E+000  0.000000000000000E+000        
  0.000000000000000E+000  0.000000000000000E+000  0.000000000000000E+000        
   2.36800000000000       0.142493000000000       0.000000000000000E+000        
  0.000000000000000E+000  0.000000000000000E+000  0.000000000000000E+000        
  0.000000000000000E+000  0.000000000000000E+000  0.000000000000000E+000        
  0.813200000000000       0.342150000000000        1.00000000000000             
  0.000000000000000E+000  0.000000000000000E+000  0.000000000000000E+000        
  0.000000000000000E+000  0.000000000000000E+000  0.000000000000000E+000        
  0.289000000000000       0.463864000000000       0.000000000000000E+000        
   1.00000000000000       0.000000000000000E+000  0.000000000000000E+000        
  0.000000000000000E+000  0.000000000000000E+000  0.000000000000000E+000        
  0.100700000000000       0.250028000000000       0.000000000000000E+000        
  0.000000000000000E+000   1.00000000000000       0.000000000000000E+000        
  0.000000000000000E+000  0.000000000000000E+000  0.000000000000000E+000        
   8.18200000000000       0.000000000000000E+000  0.000000000000000E+000        
  0.000000000000000E+000  0.000000000000000E+000   1.00000000000000             
  0.000000000000000E+000  0.000000000000000E+000  0.000000000000000E+000        
   24.1860000000000       0.000000000000000E+000  0.000000000000000E+000        
  0.000000000000000E+000  0.000000000000000E+000  0.000000000000000E+000        
   1.00000000000000       0.000000000000000E+000  0.000000000000000E+000        
   71.4940000000000       0.000000000000000E+000  0.000000000000000E+000        
  0.000000000000000E+000  0.000000000000000E+000  0.000000000000000E+000        
  0.000000000000000E+000   1.00000000000000       0.000000000000000E+000        
  3.218000000000000E-002  0.000000000000000E+000  0.000000000000000E+000        
  0.000000000000000E+000  0.000000000000000E+000  0.000000000000000E+000        
  0.000000000000000E+000  0.000000000000000E+000   1.00000000000000             
    6    6                                                                      
   1.84800000000000        1.00000000000000       0.000000000000000E+000        
  0.000000000000000E+000  0.000000000000000E+000  0.000000000000000E+000        
  0.000000000000000E+000                                                        
  0.649000000000000       0.000000000000000E+000   1.00000000000000             
  0.000000000000000E+000  0.000000000000000E+000  0.000000000000000E+000        
  0.000000000000000E+000                                                        
  0.228000000000000       0.000000000000000E+000  0.000000000000000E+000        
   1.00000000000000       0.000000000000000E+000  0.000000000000000E+000        
  0.000000000000000E+000                                                        
   8.65600000000000       0.000000000000000E+000  0.000000000000000E+000        
  0.000000000000000E+000   1.00000000000000       0.000000000000000E+000        
  0.000000000000000E+000                                                        
   33.2130000000000       0.000000000000000E+000  0.000000000000000E+000        
  0.000000000000000E+000  0.000000000000000E+000   1.00000000000000             
  0.000000000000000E+000                                                        
  7.660000000000000E-002  0.000000000000000E+000  0.000000000000000E+000        
  0.000000000000000E+000  0.000000000000000E+000  0.000000000000000E+000        
   1.00000000000000                                                             
    4    4                                                                      
   1.41900000000000        1.00000000000000       0.000000000000000E+000        
  0.000000000000000E+000  0.000000000000000E+000                                
  0.485000000000000       0.000000000000000E+000   1.00000000000000             
  0.000000000000000E+000  0.000000000000000E+000                                
   24.6940000000000       0.000000000000000E+000  0.000000000000000E+000        
   1.00000000000000       0.000000000000000E+000                                
  0.187000000000000       0.000000000000000E+000  0.000000000000000E+000        
  0.000000000000000E+000   1.00000000000000                                     
    2    2                                                                      
   1.01100000000000        1.00000000000000       0.000000000000000E+000        
  0.424000000000000       0.000000000000000E+000   1.00000000000000             
          8.00000000    1    5    1    1    1    1    1                         
O #2   0.000000000000000   0.000000000000000  -0.727239250966326                
   16    9                                                                      
   61420.0000000000       9.000000000000001E-005 -2.000000000000000E-005        
  0.000000000000000E+000  0.000000000000000E+000  0.000000000000000E+000        
  0.000000000000000E+000  0.000000000000000E+000  0.000000000000000E+000        
  0.000000000000000E+000                                                        
   9199.00000000000       6.980000000000001E-004 -1.590000000000000E-004        
  0.000000000000000E+000  0.000000000000000E+000  0.000000000000000E+000        
  0.000000000000000E+000  0.000000000000000E+000  0.000000000000000E+000        
  0.000000000000000E+000                                                        
   2091.00000000000       3.664000000000000E-003 -8.290000000000000E-004        
  0.000000000000000E+000  0.000000000000000E+000  0.000000000000000E+000        
  0.000000000000000E+000  0.000000000000000E+000  0.000000000000000E+000        
  0.000000000000000E+000                                                        
   590.900000000000       1.521800000000000E-002 -3.508000000000000E-003        
  0.000000000000000E+000  0.000000000000000E+000  0.000000000000000E+000        
  0.000000000000000E+000  0.000000000000000E+000  0.000000000000000E+000        
  0.000000000000000E+000                                                        
   192.300000000000       5.242300000000000E-002 -1.215600000000000E-002        
  0.000000000000000E+000  0.000000000000000E+000  0.000000000000000E+000        
  0.000000000000000E+000  0.000000000000000E+000  0.000000000000000E+000        
  0.000000000000000E+000                                                        
   69.3200000000000       0.145921000000000      -3.626100000000000E-002        
  0.000000000000000E+000  0.000000000000000E+000  0.000000000000000E+000        
  0.000000000000000E+000  0.000000000000000E+000  0.000000000000000E+000        
  0.000000000000000E+000                                                        
   26.9700000000000       0.305258000000000      -8.299200000000000E-002        
  0.000000000000000E+000  0.000000000000000E+000  0.000000000000000E+000        
  0.000000000000000E+000  0.000000000000000E+000  0.000000000000000E+000        
  0.000000000000000E+000                                                        
   11.1000000000000       0.398508000000000      -0.152090000000000             
  0.000000000000000E+000  0.000000000000000E+000  0.000000000000000E+000        
  0.000000000000000E+000  0.000000000000000E+000  0.000000000000000E+000        
  0.000000000000000E+000                                                        
   4.68200000000000       0.216980000000000      -0.115331000000000             
  0.000000000000000E+000  0.000000000000000E+000  0.000000000000000E+000        
  0.000000000000000E+000  0.000000000000000E+000  0.000000000000000E+000        
  0.000000000000000E+000                                                        
   1.42800000000000       1.759400000000000E-002  0.288979000000000             
   1.00000000000000       0.000000000000000E+000  0.000000000000000E+000        
  0.000000000000000E+000  0.000000000000000E+000  0.000000000000000E+000        
  0.000000000000000E+000                                                        
  0.554700000000000      -2.502000000000000E-003  0.586128000000000             
  0.000000000000000E+000   1.00000000000000       0.000000000000000E+000        
  0.000000000000000E+000  0.000000000000000E+000  0.000000000000000E+000        
  0.000000000000000E+000                                                        
  0.206700000000000       9.540000000000000E-004  0.277624000000000             
  0.000000000000000E+000  0.000000000000000E+000   1.00000000000000             
  0.000000000000000E+000  0.000000000000000E+000  0.000000000000000E+000        
  0.000000000000000E+000                                                        
   12.9740000000000       0.000000000000000E+000  0.000000000000000E+000        
  0.000000000000000E+000  0.000000000000000E+000  0.000000000000000E+000        
   1.00000000000000       0.000000000000000E+000  0.000000000000000E+000        
  0.000000000000000E+000                                                        
   34.9000000000000       0.000000000000000E+000  0.000000000000000E+000        
  0.000000000000000E+000  0.000000000000000E+000  0.000000000000000E+000        
  0.000000000000000E+000   1.00000000000000       0.000000000000000E+000        
  0.000000000000000E+000                                                        
   93.8810000000000       0.000000000000000E+000  0.000000000000000E+000        
  0.000000000000000E+000  0.000000000000000E+000  0.000000000000000E+000        
  0.000000000000000E+000  0.000000000000000E+000   1.00000000000000             
  0.000000000000000E+000                                                        
  6.959000000000000E-002  0.000000000000000E+000  0.000000000000000E+000        
  0.000000000000000E+000  0.000000000000000E+000  0.000000000000000E+000        
  0.000000000000000E+000  0.000000000000000E+000  0.000000000000000E+000        
   1.00000000000000                                                             
   10    8                                                                      
   63.4200000000000       6.044000000000000E-003  0.000000000000000E+000        
  0.000000000000000E+000  0.000000000000000E+000  0.000000000000000E+000        
  0.000000000000000E+000  0.000000000000000E+000  0.000000000000000E+000        
   14.6600000000000       4.179900000000000E-002  0.000000000000000E+000        
  0.000000000000000E+000  0.000000000000000E+000  0.000000000000000E+000        
  0.000000000000000E+000  0.000000000000000E+000  0.000000000000000E+000        
   4.45900000000000       0.161143000000000       0.000000000000000E+000        
  0.000000000000000E+000  0.000000000000000E+000  0.000000000000000E+000        
  0.000000000000000E+000  0.000000000000000E+000  0.000000000000000E+000        
   1.53100000000000       0.356731000000000        1.00000000000000             
  0.000000000000000E+000  0.000000000000000E+000  0.000000000000000E+000        
  0.000000000000000E+000  0.000000000000000E+000  0.000000000000000E+000        
  0.530200000000000       0.448309000000000       0.000000000000000E+000        
   1.00000000000000       0.000000000000000E+000  0.000000000000000E+000        
  0.000000000000000E+000  0.000000000000000E+000  0.000000000000000E+000        
  0.175000000000000       0.244940000000000       0.000000000000000E+000        
  0.000000000000000E+000   1.00000000000000       0.000000000000000E+000        
  0.000000000000000E+000  0.000000000000000E+000  0.000000000000000E+000        
   14.4750000000000       0.000000000000000E+000  0.000000000000000E+000        
  0.000000000000000E+000  0.000000000000000E+000   1.00000000000000             
  0.000000000000000E+000  0.000000000000000E+000  0.000000000000000E+000        
   42.7300000000000       0.000000000000000E+000  0.000000000000000E+000        
  0.000000000000000E+000  0.000000000000000E+000  0.000000000000000E+000        
   1.00000000000000       0.000000000000000E+000  0.000000000000000E+000        
   126.140000000000       0.000000000000000E+000  0.000000000000000E+000        
  0.000000000000000E+000  0.000000000000000E+000  0.000000000000000E+000        
  0.000000000000000E+000   1.00000000000000       0.000000000000000E+000        
  5.348000000000000E-002  0.000000000000000E+000  0.000000000000000E+000        
  0.000000000000000E+000  0.000000000000000E+000  0.000000000000000E+000        
  0.000000000000000E+000  0.000000000000000E+000   1.00000000000000             
    6    6                                                                      
   3.77500000000000        1.00000000000000       0.000000000000000E+000        
  0.000000000000000E+000  0.000000000000000E+000  0.000000000000000E+000        
  0.000000000000000E+000                                                        
   1.30000000000000       0.000000000000000E+000   1.00000000000000             
  0.000000000000000E+000  0.000000000000000E+000  0.000000000000000E+000        
  0.000000000000000E+000                                                        
  0.444000000000000       0.000000000000000E+000  0.000000000000000E+000        
   1.00000000000000       0.000000000000000E+000  0.000000000000000E+000        
  0.000000000000000E+000                                                        
   14.9270000000000       0.000000000000000E+000  0.000000000000000E+000        
  0.000000000000000E+000   1.00000000000000       0.000000000000000E+000        
  0.000000000000000E+000                                                        
   57.5440000000000       0.000000000000000E+000  0.000000000000000E+000        
  0.000000000000000E+000  0.000000000000000E+000   1.00000000000000             
  0.000000000000000E+000                                                        
  0.154000000000000       0.000000000000000E+000  0.000000000000000E+000        
  0.000000000000000E+000  0.000000000000000E+000  0.000000000000000E+000        
   1.00000000000000                                                             
    4    4                                                                      
   2.66600000000000        1.00000000000000       0.000000000000000E+000        
  0.000000000000000E+000  0.000000000000000E+000                                
  0.859000000000000       0.000000000000000E+000   1.00000000000000             
  0.000000000000000E+000  0.000000000000000E+000                                
   26.4830000000000       0.000000000000000E+000  0.000000000000000E+000        
   1.00000000000000       0.000000000000000E+000                                
  0.324000000000000       0.000000000000000E+000  0.000000000000000E+000        
  0.000000000000000E+000   1.00000000000000                                     
    2    2                                                                      
   1.84600000000000        1.00000000000000       0.000000000000000E+000        
  0.714000000000000       0.000000000000000E+000   1.00000000000000             
FINISH                                                                          
 
********************************************************************************
 ONE- AND TWO-ELECTRON INTEGRALS OVER SYMMETRY-ADAPTED AOS ARE CALCULATED.

  SPHERICAL HARMONICS ARE USED.
  
  INTEGRALS LESS THAN  0.10E-13 ARE NEGLECTED.

  NUCLEAR REPULSION ENERGY :   26.4019542366 A.U.
  @MOLECU-I, ONE ELECTRON INTEGRALS (CPU/WALL):        0.08/       0.10 SECONDS.
  @TWOEL-I,    4689067 INTEGRALS OF SYMMETRY TYPE  I I I I
  @TWOEL-I,   20066426 INTEGRALS OF SYMMETRY TYPE  I J I J
  @TWOEL-I,   10578166 INTEGRALS OF SYMMETRY TYPE  I I J J
  @TWOEL-I,   14816520 INTEGRALS OF SYMMETRY TYPE  I J K L
  @TWOEL-I, TOTAL NUMBER OF 2-E INTEGRALS   50150179.
  @MOLECU-I, TWO ELECTRON INTEGRALS (CPU/WALL):      276.66/      37.35 SECONDS.
 @CHECKOUT-I, Total execution time (CPU/WALL):      276.76/      37.49 seconds.

Running with 14 threads/proc

--executable xvmol finished with status     0 in       37.55 seconds (walltime).
 --invoking executable--
/nfs/workspaces/public/cfour_mpi/bin/xvmol2ja
 @GETMEM-I,  Allocated    3814 MB of main memory.
 @CHECKOUT-I, Total execution time (CPU/WALL):        0.17/       0.07 seconds.
--executable xvmol2ja finished with status     0 in        0.09 seconds (walltime).
 --invoking executable--
/nfs/workspaces/public/cfour_mpi/bin/xvprop
 @GETMEM-I,  Allocated    3814 MB of main memory.
   Property integrals will be calculated.
    --------------------------------------------------------------
                                   Property evaluated at 
    Property type                X             Y             Z
    --------------------------------------------------------------
    Dipole moment               ----          ----          ----  
    Quadrupole moment           ----          ----          ----  
    Octopole moment             ----          ----          ----  
    Relativisitic corr.         ----          ----          ----  
    Second moment            0.0000000     0.0000000     0.0000000
    Electron density         0.0000000     0.0000000     1.0908080
    Electron density         0.0000000     0.0000000    -0.7272393
    Field gradient           0.0000000     0.0000000     1.0908080
    Field gradient           0.0000000     0.0000000    -0.7272393
    Potential                0.0000000     0.0000000     1.0908080
    Potential                0.0000000     0.0000000    -0.7272393
    --------------------------------------------------------------
 @CHECKOUT-I, Total execution time (CPU/WALL):        1.31/       1.36 seconds.
--executable xvprop finished with status     0 in        1.39 seconds (walltime).
 --invoking executable--
/nfs/workspaces/public/cfour_mpi/bin/xvscf
  There are  218 functions in the AO basis.

  There are 4 irreducible representations.

       Irrep        # of functions
         1                 86
         2                 52
         3                 52
         4                 28


  Parameters for SCF calculation: 
        SCF reference function:  RHF  
  Maximum number of iterations:  150
     Full symmetry point group: CXv 
     Computational point group: C2v 
        Initial density matrix: MOREAD                 
     SCF convergence tolerance: 10**(-10)
  DIIS convergence acceleration:  ON
          Latest start for DIIS:   8
                     DIIS order:   6

  Memory information:    2523578 words required.
  Fock matrices are constructed from AO integral file.
 @GETMEM-I,  Allocated      19 MB of main memory.
  Initialization and symmetry analysis required      0.001 seconds.

  Adding electric field perturbation to one-electron Hamiltonian.
  Field direction     : Z
  Field strength      : -0.0002000 a.u.

  @INITGES-I, Occupancies from core Hamiltonian:

          Alpha population by irrep:   5    1    1    0
           Beta population by irrep:   5    1    1    0


 total no. of electrons in initial guess :  0.000000000000000E+000
  --------------------------------------------------------------------
  Iteration         Total Energy            Largest Density Difference
  --------------------------------------------------------------------
       0            26.402099623342675              0.0000000000D+00
   current occupation vector 
     5  1  1  0
     5  1  1  0
       1           -90.117248260413660              0.2023699336D+02
   current occupation vector 
     5  1  1  0
     5  1  1  0
       2           -92.352050749831818              0.1105182138D+03
   current occupation vector 
     5  1  1  0
     5  1  1  0
       3          -104.307560791386038              0.1105322673D+03
   current occupation vector 
     4  1  2  0
     4  1  2  0
       4          -102.296165440058502              0.1563032155D+02
   current occupation vector 
     5  1  1  0
     5  1  1  0
       5          -106.355380046333664              0.1562901511D+02
   current occupation vector 
     4  1  2  0
     4  1  2  0
       6          -103.713355408511660              0.1142613197D+02
   current occupation vector 
     5  1  1  0
     5  1  1  0
       7          -105.090816100152011              0.1114932432D+02
   current occupation vector 
     5  1  1  0
     5  1  1  0
       8          -102.540684196693775              0.4935667904D+01
   current occupation vector 
     5  1  1  0
     5  1  1  0
       9          -112.064073536720400              0.3255536209D+01
   current occupation vector 
     5  1  1  0
     5  1  1  0
      10          -112.619902837512029              0.7056811752D+00
   current occupation vector 
     5  1  1  0
     5  1  1  0
      11          -112.714402457129268              0.2309683735D+00
   current occupation vector 
     5  1  1  0
     5  1  1  0
      12          -112.716653200830649              0.4560977347D-01
   current occupation vector 
     5  1  1  0
     5  1  1  0
      13          -112.716750984631489              0.1351997839D-01
   current occupation vector 
     5  1  1  0
     5  1  1  0
      14          -112.716759228426497              0.3913543841D-02
   current occupation vector 
     5  1  1  0
     5  1  1  0
      15          -112.716760635793889              0.2053294645D-02
   current occupation vector 
     5  1  1  0
     5  1  1  0
      16          -112.716760749730696              0.5579326594D-03
   current occupation vector 
     5  1  1  0
     5  1  1  0
      17          -112.716760753847325              0.1252418873D-03
   current occupation vector 
     5  1  1  0
     5  1  1  0
      18          -112.716760753943362              0.1347318832D-04
   current occupation vector 
     5  1  1  0
     5  1  1  0
      19          -112.716760753947682              0.1995708146D-05
   current occupation vector 
     5  1  1  0
     5  1  1  0
      20          -112.716760753947909              0.6224664608D-06
   current occupation vector 
     5  1  1  0
     5  1  1  0
      21          -112.716760753947739              0.1053228031D-06
   current occupation vector 
     5  1  1  0
     5  1  1  0
      22          -112.716760753947597              0.2541211797D-07
   current occupation vector 
     5  1  1  0
     5  1  1  0
      23          -112.716760753948023              0.5865654407D-08
   current occupation vector 
     5  1  1  0
     5  1  1  0
      24          -112.716760753947540              0.1997668253D-08
   current occupation vector 
     5  1  1  0
     5  1  1  0
      25          -112.716760753946744              0.9630456432D-09
   current occupation vector 
     5  1  1  0
     5  1  1  0
      26          -112.716760753947653              0.1817379580D-09
   current occupation vector 
     5  1  1  0
     5  1  1  0
      27          -112.716760753947199              0.1447569009D-09
   current occupation vector 
     5  1  1  0
     5  1  1  0

  SCF has converged.

 Density matrix saved to file den.dat
 total electron number:   13.9999999999999     
     E(SCF)=      -112.716760753947511              0.4580182761D-10

  Eigenvector printing suppressed.

 @PUTMOS-I, Writing converged MOs to NEWMOS. 
 @PUTMOS-I, Symmetry   1 Full Blocks 21 Partial Blocksize   2
 @PUTMOS-I, Symmetry   2 Full Blocks 13 Partial Blocksize   0
 @PUTMOS-I, Symmetry   3 Full Blocks 13 Partial Blocksize   0
 @PUTMOS-I, Symmetry   4 Full Blocks  7 Partial Blocksize   0
 @PUTFOCK-I, Writing converged Fock matrix to NEWFOCK. 
 @PUTFOCK-I, Symmetry   1 Full Blocks 21 Partial Blocksize   2
 @PUTFOCK-I, Symmetry   2 Full Blocks 13 Partial Blocksize   0
 @PUTFOCK-I, Symmetry   3 Full Blocks 13 Partial Blocksize   0
 @PUTFOCK-I, Symmetry   4 Full Blocks  7 Partial Blocksize   0


 
  ORBITAL EIGENVALUES (ALPHA)  (1H = 27.2113834 eV)

       MO #        E(hartree)               E(eV)           FULLSYM    COMPSYM
       ----   --------------------   --------------------   -------   ---------
    1     1         -20.6525141751        -561.9834813936     SG+        A1 (1)
    2     2         -11.2846569824        -307.0711276864     SG+        A1 (1)
    3     3          -1.6396189320         -44.6162993897     SG+        A1 (1)
    4     4          -0.8187424239         -22.2791140037     SG+        A1 (1)
    5   139          -0.7239963096         -19.7009411621      PI        B2 (3)
    6    87          -0.7239963096         -19.7009411620      PI        B1 (2)
    7     5          -0.5309165692         -14.4469743187     SG+        A1 (1)
  +++++++++++++++++++++++++++++++++++++++++++++++++++++++++++++++++++++++++++++
    8     6           0.0575565848           1.5661942975     SG+        A1 (1)
    9   140           0.0644846127           1.7547155201      PI        B2 (3)
   10    88           0.0644846127           1.7547155201      PI        B1 (2)
   11     7           0.0758939917           2.0651805053     SG+        A1 (1)
   12   141           0.1550032594           4.2178531187      PI        B2 (3)
   13    89           0.1550032594           4.2178531187      PI        B1 (2)
   14     8           0.1565976154           4.2612377530     SG+        A1 (1)
   15   142           0.1985449447           5.4026826118      PI        B2 (3)
   16    90           0.1985449447           5.4026826118      PI        B1 (2)
   17     9           0.2268675999           6.1733812417     SG+        A1 (1)
   18   191           0.2270782052           6.1791121032      DE        A2 (4)
   19    10           0.2270782052           6.1791121032      DE        A1 (1)
   20    11           0.3019784969           8.2172526569     SG+        A1 (1)
   21    91           0.3417959902           9.3007417348      PI        B1 (2)
   22   143           0.3417959902           9.3007417348      PI        B2 (3)
   23    12           0.3980116648          10.8304480098     SG+        A1 (1)
   24    92           0.4050214301          11.0211934203      PI        B1 (2)
   25   144           0.4050214301          11.0211934203      PI        B2 (3)
   26    13           0.5079982986          13.8233364700     SG+        A1 (1)
   27   192           0.5217992372          14.1988791019      DE        A2 (4)
   28    14           0.5217992372          14.1988791019      DE        A1 (1)
   29   145           0.6181983749          16.8220329961      PI        B2 (3)
   30    93           0.6181983749          16.8220329961      PI        B1 (2)
   31    15           0.6613447863          17.9961065409     SG+        A1 (1)
   32   146           0.7500000197          20.4085380849      PH        B2 (3)
   33    94           0.7500000197          20.4085380849      PH        B1 (2)
   34    16           0.7699310663          20.9508894376      DE        A1 (1)
   35   193           0.7699310663          20.9508894376      DE        A2 (4)
   36    17           0.7930180602          21.5791184785     SG+        A1 (1)
   37    95           0.8448269252          22.9889093669      PI        B1 (2)
   38   147           0.8448269252          22.9889093669      PI        B2 (3)
   39    96           0.8707776687          23.6950649984      PI        B1 (2)
   40   148           0.8707776687          23.6950649984      PI        B2 (3)
   41    18           0.8784011145          23.9025095068     SG+        A1 (1)
   42    19           0.9057641975          24.6470968493      DE        A1 (1)
   43   194           0.9057641975          24.6470968494      DE        A2 (4)
   44    20           0.9610099014          26.1504088776     SG+        A1 (1)
   45    97           1.1220792888          30.5333297327      PI        B1 (2)
   46   149           1.1220792888          30.5333297327      PI        B2 (3)
   47    21           1.3425465714          36.5325494879     SG+        A1 (1)
   48   150           1.4583925609          39.6848791223      PH        B2 (3)
   49    98           1.4583925609          39.6848791223      PH        B1 (2)
   50    22           1.4977169893          40.7549512208      DE        A1 (1)
   51   195           1.4977169893          40.7549512208      DE        A2 (4)
   52   151           1.5277106735          41.5711208614      PI        B2 (3)
   53    99           1.5277106735          41.5711208614      PI        B1 (2)
   54    23           1.5592661330          42.4297885685     SG+        A1 (1)
   55    24           1.6567969778          45.0837377794     SG+        A1 (1)
   56    25           1.7634338725          47.9854752060     SG+        A1 (1)
   57    26           1.7753637720          48.3101042735      DE        A1 (1)
   58   196           1.7753637720          48.3101042736      DE        A2 (4)
   59   100           1.8641746709          50.7267716945      PI        B1 (2)
   60   152           1.8641746709          50.7267716946      PI        B2 (3)
   61   101           1.9923223645          54.2138477156      PI        B1 (2)
   62   153           1.9923223645          54.2138477156      PI        B2 (3)
   63    27           2.1148906711          57.5491009002      PI        A1 (1)
   64   197           2.1148906711          57.5491009002      PI        A2 (4)
   65    28           2.2266151588          60.5892787693     SG+        A1 (1)
   66    29           2.2353038787          60.8257108601      DE        A1 (1)
   67   198           2.2353038787          60.8257108601      DE        A2 (4)
   68   154           2.2631338655          61.5830032999      PH        B2 (3)
   69   102           2.2631338655          61.5830032999      PH        B1 (2)
   70    30           2.3440814391          63.7856987605     SG+        A1 (1)
   71   155           2.3542401926          64.0621324956      PI        B2 (3)
   72   103           2.3542401926          64.0621324956      PI        B1 (2)
   73    31           2.3886501781          64.9984758041      DE        A1 (1)
   74   199           2.3886501781          64.9984758041      DE        A2 (4)
   75   104           2.4275278164          66.0563901264      PH        B1 (2)
   76   156           2.4275278164          66.0563901264      PH        B2 (3)
   77    32           2.6044983698          70.8720037039     SG+        A1 (1)
   78   105           2.6111192276          71.0521664065      PI        B1 (2)
   79   157           2.6111192276          71.0521664065      PI        B2 (3)
   80   106           3.0238945196          82.2843531333      PI        B1 (2)
   81   158           3.0238945196          82.2843531333      PI        B2 (3)
   82   200           3.1391935804          85.4218000834      DE        A2 (4)
   83    33           3.1391935804          85.4218000835      DE        A1 (1)
   84    34           3.1542889337          85.8325655299     SG+        A1 (1)
   85    35           3.3752664590          91.8456696940     SG+        A1 (1)
   86   107           3.7497239948         102.0351772675      PI        B1 (2)
   87   159           3.7497239948         102.0351772676      PI        B2 (3)
   88    36           3.7678951547         102.5296396643      PI        A1 (1)
   89   201           3.7678951547         102.5296396643      PI        A2 (4)
   90    37           3.9987702134         108.8120694048     SG+        A1 (1)
   91   160           4.0636294586         110.5769791928      PH        B2 (3)
   92   108           4.0636294586         110.5769791928      PH        B1 (2)
   93    38           4.1809236061         113.7687152120      DE        A1 (1)
   94   202           4.1809236061         113.7687152121      DE        A2 (4)
   95   161           4.2144522622         114.6810763288      PI        B2 (3)
   96   109           4.2144522622         114.6810763288      PI        B1 (2)
   97    39           4.3400854566         118.0997293486     SG+        A1 (1)
   98    40           4.4572876064         121.2889619821      DE        A1 (1)
   99   203           4.4572876064         121.2889619821      DE        A2 (4)
  100   110           4.4859252980         122.0682331874      PH        B1 (2)
  101   162           4.4859252980         122.0682331874      PH        B2 (3)
  102    41           4.6986158080         127.8558362020     SG+        A1 (1)
  103   111           4.8902570033         133.0706582424      PI        B1 (2)
  104   163           4.8902570033         133.0706582425      PI        B2 (3)
  105    42           5.1002026092         138.7835686167     SG+        A1 (1)
  106    43           5.2034224516         141.5923233232      DE        A1 (1)
  107   204           5.2034224516         141.5923233233      DE        A2 (4)
  108   112           5.3282353143         144.9886539817      PI        B1 (2)
  109   164           5.3282353143         144.9886539817      PI        B2 (3)
  110   205           5.9267502869         161.2750743739      PI        A2 (4)
  111    44           5.9267502869         161.2750743740      PI        A1 (1)
  112   113           5.9942684852         163.1123379528      PI        B1 (2)
  113   165           5.9942684852         163.1123379529      PI        B2 (3)
  114    45           6.1585150328         167.5817137312     SG+        A1 (1)
  115   114           6.3010127320         171.4592732585      PH        B1 (2)
  116   166           6.3010127320         171.4592732585      PH        B2 (3)
  117    46           6.3364417377         172.4233455152     SG+        A1 (1)
  118    47           6.3414270978         172.5590040623      DE        A1 (1)
  119   206           6.3414270978         172.5590040623      DE        A2 (4)
  120   115           6.4026862262         174.2259496918      PI        B1 (2)
  121   167           6.4026862262         174.2259496918      PI        B2 (3)
  122   116           6.5219644822         177.4716760451      PH        B1 (2)
  123   168           6.5219644822         177.4716760451      PH        B2 (3)
  124   207           6.7463410691         183.5772733791      DE        A2 (4)
  125    48           6.7463410691         183.5772733794      DE        A1 (1)
  126    49           7.1475204059         194.4939181239     SG+        A1 (1)
  127   169           7.9275943715         215.7208098826      PI        B2 (3)
  128   117           7.9275943715         215.7208098826      PI        B1 (2)
  129   208           8.0685311990         219.5558959308      DE        A2 (4)
  130    50           8.0685311990         219.5558959309      DE        A1 (1)
  131    51           8.5011522517         231.3281132633     SG+        A1 (1)
  132    52           8.8397258423         240.5411690455     SG+        A1 (1)
  133   118           8.9511660493         243.5736112459      PI        B1 (2)
  134   170           8.9511660494         243.5736112462      PI        B2 (3)
  135    53           9.8634920841         268.3992647636     SG+        A1 (1)
  136   171          10.1830698533         277.0954179678      PI        B2 (3)
  137   119          10.1830698533         277.0954179679      PI        B1 (2)
  138    54          10.6055829702         288.5925843832      PI        A1 (1)
  139   209          10.6055829702         288.5925843832      PI        A2 (4)
  140   172          11.0399409924         300.4120670563      PH        B2 (3)
  141   120          11.0399409924         300.4120670563      PH        B1 (2)
  142    55          11.3398811611         308.5738539851      DE        A1 (1)
  143   210          11.3398811611         308.5738539851      DE        A2 (4)
  144    56          11.3762630509         309.5638555379     SG+        A1 (1)
  145   121          11.4582650603         311.7952436545      PI        B1 (2)
  146   173          11.4582650603         311.7952436545      PI        B2 (3)
  147   174          11.8721698573         323.0581657761      PH        B2 (3)
  148   122          11.8721698573         323.0581657761      PH        B1 (2)
  149   211          12.4606717145         339.0721154451      DE        A2 (4)
  150    57          12.4606717145         339.0721154454      DE        A1 (1)
  151    58          12.7894500454         348.0186286599     SG+        A1 (1)
  152    59          13.1245137033         357.1361743200      DE        A1 (1)
  153   212          13.1245137033         357.1361743201      DE        A2 (4)
  154   175          13.1856241424         358.7990739074      PI        B2 (3)
  155   123          13.1856241424         358.7990739074      PI        B1 (2)
  156    60          14.1115113861         383.9937466797     SG+        A1 (1)
  157   176          15.1317099274         411.7547603322      PI        B2 (3)
  158   124          15.1317099274         411.7547603323      PI        B1 (2)
  159    61          15.6587506670         426.0962679657     SG+        A1 (1)
  160    62          18.8619671504         513.2602198082     SG+        A1 (1)
  161   125          19.6763445250         535.4205547791      PI        B1 (2)
  162   177          19.6763445250         535.4205547793      PI        B2 (3)
  163    63          21.5453798767         586.2795923246     SG+        A1 (1)
  164   213          26.7481762688         727.8548797010      DE        A2 (4)
  165    64          26.7481762688         727.8548797014      DE        A1 (1)
  166   126          27.7475151379         755.0482728144      PI        B1 (2)
  167   178          27.7475151379         755.0482728144      PI        B2 (3)
  168    65          29.0021334035         789.1881714610     SG+        A1 (1)
  169   179          33.9855487571         924.7937972899      PI        B2 (3)
  170   127          33.9855487572         924.7937972908      PI        B1 (2)
  171    66          36.0615073241         981.2835017776     SG+        A1 (1)
  172    67          37.4620672458        1019.3946747807     SG+        A1 (1)
  173    68          47.2132337885        1284.7374061738      DE        A1 (1)
  174   214          47.2132337885        1284.7374061738      DE        A2 (4)
  175   128          48.1712713721        1310.8069341708      PI        B1 (2)
  176   180          48.1712713721        1310.8069341708      PI        B2 (3)
  177    69          48.8086098656        1328.1497962737     SG+        A1 (1)
  178    70          64.8973587379        1765.9469102647     SG+        A1 (1)
  179   129          67.1077042020        1826.0934681340      PI        B1 (2)
  180   181          67.1077042020        1826.0934681341      PI        B2 (3)
  181    71          68.5261011030        1864.6900100207     SG+        A1 (1)
  182   130          98.7649317212        2687.5304235394      PH        B1 (2)
  183   182          98.7649317212        2687.5304235394      PH        B2 (3)
  184   215          98.8126858373        2688.8298791021      DE        A2 (4)
  185    72          98.8126858373        2688.8298791021      DE        A1 (1)
  186   131          98.8745372613        2690.5129419156      PI        B1 (2)
  187   183          98.8745372613        2690.5129419157      PI        B2 (3)
  188    73          98.9237315206        2691.8515857655     SG+        A1 (1)
  189   132         103.3006542391        2810.9537079712      PH        B1 (2)
  190   184         103.3006542391        2810.9537079712      PH        B2 (3)
  191    74         103.3705641975        2812.8560546526      DE        A1 (1)
  192   216         103.3705641975        2812.8560546531      DE        A2 (4)
  193   133         103.4488080407        2814.9851778676      PI        B1 (2)
  194   185         103.4488080407        2814.9851778676      PI        B2 (3)
  195    75         103.5551453837        2817.8787640788     SG+        A1 (1)
  196   217         115.3467622282        3138.7449709392      DE        A2 (4)
  197    76         115.3467622282        3138.7449709392      DE        A1 (1)
  198   186         115.8362446664        3152.0644652335      PI        B2 (3)
  199   134         115.8362446664        3152.0644652335      PI        B1 (2)
  200    77         116.3376228536        3165.7076593141     SG+        A1 (1)
  201   187         117.2113612611        3189.4832901116      PI        B2 (3)
  202   135         117.2113612611        3189.4832901122      PI        B1 (2)
  203    78         119.1027615788        3240.9509093196     SG+        A1 (1)
  204    79         123.3905231370        3357.6268330088     SG+        A1 (1)
  205    80         198.6444244049        5405.3895927550      DE        A1 (1)
  206   218         198.6444244049        5405.3895927551      DE        A2 (4)
  207   136         199.1738801273        5419.7968154094      PI        B1 (2)
  208   188         199.1738801273        5419.7968154098      PI        B2 (3)
  209    81         199.5279640782        5429.4319295528     SG+        A1 (1)
  210    82         217.3069320487        5913.2222434556     SG+        A1 (1)
  211   137         225.4998311827        6136.1623629488      PI        B1 (2)
  212   189         225.4998311827        6136.1623629489      PI        B2 (3)
  213    83         226.6440706469        6167.2987017083     SG+        A1 (1)
  214   190         395.6325286199       10765.7084217871      PI        B2 (3)
  215   138         395.6325286199       10765.7084217875      PI        B1 (2)
  216    84         397.0043692022       10803.0381018365     SG+        A1 (1)
  217    85         509.8194309606       13872.8920006399     SG+        A1 (1)
  218    86         896.1760959759       24386.1913415159     SG+        A1 (1)


  VSCF finished.

 @CHECKOUT-I, Total execution time (CPU/WALL):       54.24/      11.84 seconds.
--executable xvscf finished with status     0 in       11.87 seconds (walltime).
 --invoking executable--
/nfs/workspaces/public/cfour_mpi/bin/xvtran
 @GETMEM-I,  Allocated    3814 MB of main memory.
  Full RHF integral transformation
  Transformation of IIII integrals :
  1 pass through the AO integral file was required.
     4689067 AO integrals were read.
     8907347 MO integrals were written to HF2.
  Transformation of IIJJ integrals :
  1 pass through the AO integral file was required.
    10578166 AO integrals were read.
    14733358 MO integrals were written to HF2.
  Transformation of IJIJ integrals :
  1 pass through the AO integral file was required.
    20066426 AO integrals were read.
    28002265 MO integrals were written to HF2.
  Transformation of IJKL integrals :
  1 pass through the AO integral file was required.
    14816520 AO integrals were read.
    18960509 MO integrals were written to HF2.
  Summary of active molecular orbitals: 
------------------------------------------------------------------------
 
  Index      Eigenvalue    Symmetry    Index      Eigenvalue    Symmetry
------------------------------------------------------------------------
     1       -20.6525142        1       110         4.2144523        2
     2       -11.2846570        1       111         4.4859253        2
     3        -1.6396189        1       112         4.8902570        2
     4        -0.8187424        1       113         5.3282353        2
     5        -0.5309166        1       114         5.9942685        2
     6        -0.7239963        2       115         6.3010127        2
     7        -0.7239963        3       116         6.4026862        2
     8         0.0575566        1       117         6.5219645        2
     9         0.0758940        1       118         7.9275944        2
    10         0.1565976        1       119         8.9511660        2
    11         0.2268676        1       120        10.1830699        2
    12         0.2270782        1       121        11.0399410        2
    13         0.3019785        1       122        11.4582651        2
    14         0.3980117        1       123        11.8721699        2
    15         0.5079983        1       124        13.1856241        2
    16         0.5217992        1       125        15.1317099        2
    17         0.6613448        1       126        19.6763445        2
    18         0.7699311        1       127        27.7475151        2
    19         0.7930181        1       128        33.9855488        2
    20         0.8784011        1       129        48.1712714        2
    21         0.9057642        1       130        67.1077042        2
    22         0.9610099        1       131        98.7649317        2
    23         1.3425466        1       132        98.8745373        2
    24         1.4977170        1       133       103.3006542        2
    25         1.5592661        1       134       103.4488080        2
    26         1.6567970        1       135       115.8362447        2
    27         1.7634339        1       136       117.2113613        2
    28         1.7753638        1       137       199.1738801        2
    29         2.1148907        1       138       225.4998312        2
    30         2.2266152        1       139       395.6325286        2
    31         2.2353039        1       140         0.0644846        3
    32         2.3440814        1       141         0.1550033        3
    33         2.3886502        1       142         0.1985449        3
    34         2.6044984        1       143         0.3417960        3
    35         3.1391936        1       144         0.4050214        3
    36         3.1542889        1       145         0.6181984        3
    37         3.3752665        1       146         0.7500000        3
    38         3.7678952        1       147         0.8448269        3
    39         3.9987702        1       148         0.8707777        3
    40         4.1809236        1       149         1.1220793        3
    41         4.3400855        1       150         1.4583926        3
    42         4.4572876        1       151         1.5277107        3
    43         4.6986158        1       152         1.8641747        3
    44         5.1002026        1       153         1.9923224        3
    45         5.2034225        1       154         2.2631339        3
    46         5.9267503        1       155         2.3542402        3
    47         6.1585150        1       156         2.4275278        3
    48         6.3364417        1       157         2.6111192        3
    49         6.3414271        1       158         3.0238945        3
    50         6.7463411        1       159         3.7497240        3
    51         7.1475204        1       160         4.0636295        3
    52         8.0685312        1       161         4.2144523        3
    53         8.5011523        1       162         4.4859253        3
    54         8.8397258        1       163         4.8902570        3
    55         9.8634921        1       164         5.3282353        3
    56        10.6055830        1       165         5.9942685        3
    57        11.3398812        1       166         6.3010127        3
    58        11.3762631        1       167         6.4026862        3
    59        12.4606717        1       168         6.5219645        3
    60        12.7894500        1       169         7.9275944        3
    61        13.1245137        1       170         8.9511660        3
    62        14.1115114        1       171        10.1830699        3
    63        15.6587507        1       172        11.0399410        3
    64        18.8619672        1       173        11.4582651        3
    65        21.5453799        1       174        11.8721699        3
    66        26.7481763        1       175        13.1856241        3
    67        29.0021334        1       176        15.1317099        3
    68        36.0615073        1       177        19.6763445        3
    69        37.4620672        1       178        27.7475151        3
    70        47.2132338        1       179        33.9855488        3
    71        48.8086099        1       180        48.1712714        3
    72        64.8973587        1       181        67.1077042        3
    73        68.5261011        1       182        98.7649317        3
    74        98.8126858        1       183        98.8745373        3
    75        98.9237315        1       184       103.3006542        3
    76       103.3705642        1       185       103.4488080        3
    77       103.5551454        1       186       115.8362447        3
    78       115.3467622        1       187       117.2113613        3
    79       116.3376229        1       188       199.1738801        3
    80       119.1027616        1       189       225.4998312        3
    81       123.3905231        1       190       395.6325286        3
    82       198.6444244        1       191         0.2270782        4
    83       199.5279641        1       192         0.5217992        4
    84       217.3069320        1       193         0.7699311        4
    85       226.6440706        1       194         0.9057642        4
    86       397.0043692        1       195         1.4977170        4
    87       509.8194310        1       196         1.7753638        4
    88       896.1760960        1       197         2.1148907        4
    89         0.0644846        2       198         2.2353039        4
    90         0.1550033        2       199         2.3886502        4
    91         0.1985449        2       200         3.1391936        4
    92         0.3417960        2       201         3.7678952        4
    93         0.4050214        2       202         4.1809236        4
    94         0.6181984        2       203         4.4572876        4
    95         0.7500000        2       204         5.2034225        4
    96         0.8448269        2       205         5.9267503        4
    97         0.8707777        2       206         6.3414271        4
    98         1.1220793        2       207         6.7463411        4
    99         1.4583926        2       208         8.0685312        4
   100         1.5277107        2       209        10.6055830        4
   101         1.8641747        2       210        11.3398812        4
   102         1.9923224        2       211        12.4606717        4
   103         2.2631339        2       212        13.1245137        4
   104         2.3542402        2       213        26.7481763        4
   105         2.4275278        2       214        47.2132338        4
   106         2.6111192        2       215        98.8126858        4
   107         3.0238945        2       216       103.3705642        4
   108         3.7497240        2       217       115.3467622        4
   109         4.0636295        2       218       198.6444244        4
------------------------------------------------------------------------
  -20.6525141751363       -11.2846569824319       -1.63961893204377     
 -0.818742423941372      -0.530916569228635      -0.723996309649184     
 -0.723996309649820       5.755658484966269E-002  7.589399167691595E-002
  0.156597615431071       0.226867599890350       0.227078205191119     
  0.301978496869456       0.398011664844447       0.507998298609292     
  0.521799237222754       0.661344786347908       0.769931066334055     
  0.793018060174798       0.878401114542382       0.905764197543298     
  0.961009901377033        1.34254657144437        1.49771698931020     
   1.55926613302954        1.65679697781811        1.76343387253147     
   1.77536377196986        2.11489067109427        2.22661515876036     
   2.23530387874851        2.34408143911174        2.38865017807526     
   2.60449836975027        3.13919358041420        3.15428893372070     
   3.37526645903555        3.76789515465425        3.99877021338004     
   4.18092360611234        4.34008545661182        4.45728760640998     
   4.69861580804352        5.10020260920367        5.20342245162106     
   5.92675028693875        6.15851503276217        6.33644173765965     
   6.34142709783312        6.74634106913359        7.14752040588578     
   8.06853119900075        8.50115225171959        8.83972584229121     
   9.86349208411016        10.6055829702199        11.3398811610974     
   11.3762630509217        12.4606717145233        12.7894500453758     
   13.1245137033338        14.1115113860641        15.6587506670362     
[...]
 Convergence information after     6 iterations: 
 Largest element of residual vector : -0.37760634E-03.
 Largest element of DIIS residual   : -0.96484040E-04.
 Convergence information after     7 iterations: 
 Largest element of residual vector : -0.65801669E-04.
 Largest element of DIIS residual   : -0.29113889E-04.
 Convergence information after     8 iterations: 
 Largest element of residual vector : -0.17935975E-04.
 Largest element of DIIS residual   :  0.11420103E-04.
 Convergence information after     9 iterations: 
 Largest element of residual vector :  0.57674269E-05.
 Largest element of DIIS residual   :  0.27030372E-05.
 Convergence information after    10 iterations: 
 Largest element of residual vector :  0.21472855E-05.
 Largest element of DIIS residual   :  0.11931609E-05.
 Convergence information after    11 iterations: 
 Largest element of residual vector :  0.61337522E-06.
 Largest element of DIIS residual   :  0.33697479E-06.
 Convergence information after    12 iterations: 
 Largest element of residual vector :  0.24914490E-06.
 Largest element of DIIS residual   :  0.16337016E-06.
 Convergence information after    13 iterations: 
 Largest element of residual vector :  0.10372104E-06.
 Largest element of DIIS residual   :  0.81284575E-07.
 Perturbed amplitude equations converged in    13 iterations.
  Dominant contributions to perturbed wavefunction:
    7    7  142   37   0.2588194856 ABAB
    7    7   37  142   0.2588194856 ABAB
    7    7  142   63   0.2093110110 ABAB
    7    7   63  142   0.2093110110 ABAB
    5    5  142   43   0.1874089175 ABAB
    5    5   43  142   0.1874089175 ABAB
    7    7  142   48   0.1845848515 ABAB
    7    7   48  142   0.1845848515 ABAB
    7    7  142   27   0.1804182271 ABAB
    7    7   27  142   0.1804182271 ABAB
    7    6   37   91   0.1777949807 ABAB
    6    7   91   37   0.1777949807 ABAB
    5    5  142   54   0.1666627693 ABAB
    5    5   54  142   0.1666627693 ABAB
    7    7  142   43   0.1618315569 ABAB
    7    7   43  142   0.1618315569 ABAB
    7    7  143   37   0.1599977212 ABAB
    7    7   37  143   0.1599977212 ABAB
    5    5  142   30  -0.1526496441 ABAB
    5    5   30  142  -0.1526496441 ABAB
  norm of converged amps    2.92881367469032     
 Starting iterative solution of the perturbed Lambda equations.
 The DIIS procedure is used to accelerate convergence.
 Convergence criterion is 10**(-7).
 Maximum number of iterations is 100.
 Convergence information after     1 iterations: 
 Largest element of residual vector : -0.59778306E-01.
 Largest element of DIIS residual   : -0.59778306E-01.
 Convergence information after     2 iterations: 
 Largest element of residual vector :  0.56384000E-02.
 Largest element of DIIS residual   :  0.62790356E-02.
 Convergence information after     3 iterations: 
 Largest element of residual vector : -0.35661797E-02.
 Largest element of DIIS residual   : -0.31722622E-02.
 Convergence information after     4 iterations: 
 Largest element of residual vector : -0.22074443E-02.
 Largest element of DIIS residual   : -0.16489847E-02.
 Convergence information after     5 iterations: 
 Largest element of residual vector : -0.11486040E-02.
 Largest element of DIIS residual   : -0.50940235E-03.
 Convergence information after     6 iterations: 
 Largest element of residual vector : -0.35094383E-03.
 Largest element of DIIS residual   : -0.86029549E-04.
 Convergence information after     7 iterations: 
 Largest element of residual vector : -0.58584062E-04.
 Largest element of DIIS residual   : -0.24157153E-04.
 Convergence information after     8 iterations: 
 Largest element of residual vector : -0.14496446E-04.
 Largest element of DIIS residual   :  0.99775754E-05.
 Convergence information after     9 iterations: 
 Largest element of residual vector :  0.51215814E-05.
 Largest element of DIIS residual   :  0.23653599E-05.
 Convergence information after    10 iterations: 
 Largest element of residual vector :  0.18750776E-05.
 Largest element of DIIS residual   :  0.10669833E-05.
 Convergence information after    11 iterations: 
 Largest element of residual vector :  0.56241566E-06.
 Largest element of DIIS residual   :  0.32102363E-06.
 Convergence information after    12 iterations: 
 Largest element of residual vector :  0.23239487E-06.
 Largest element of DIIS residual   :  0.15120701E-06.
 Convergence information after    13 iterations: 
 Largest element of residual vector :  0.96692578E-07.
 Largest element of DIIS residual   :  0.73533857E-07.
 Perturbed Lambda equations converged in    13 iterations.
  Dominant contributions to perturbed wavefunction:
    7    7  142   37   0.2491370251 ABAB
    7    7   37  142   0.2491370251 ABAB
    7    7  142   63   0.2012569572 ABAB
    7    7   63  142   0.2012569572 ABAB
    5    5  142   43   0.1799654245 ABAB
    5    5   43  142   0.1799654245 ABAB
    7    7  142   48   0.1776539034 ABAB
    7    7   48  142   0.1776539034 ABAB
    7    7  142   27   0.1730302890 ABAB
    7    7   27  142   0.1730302890 ABAB
    7    6   37   91   0.1694529360 ABAB
    6    7   91   37   0.1694529360 ABAB
    5    5  142   54   0.1599929701 ABAB
    5    5   54  142   0.1599929701 ABAB
    7    7  143   37   0.1546565542 ABAB
    7    7   37  143   0.1546565542 ABAB
    7    7  142   43   0.1543560906 ABAB
    7    7   43  142   0.1543560906 ABAB
    5    5  142   30  -0.1467853603 ABAB
    5    5   30  142  -0.1467853603 ABAB
        The DBOC first-order density matrix is being calculated 
             (Symmetry block 3, perturbation   2)
 term   10.2724789118774     
 final tnorm  0.906353939740076     
  norm contr. I: |<0|L dT/dx|0>|^2   0.000000000000000E+000
  norm contr. II: <0|[nabla(1+L)e-T][nabla e^T]|0>   10.2724789118774     
  total norm contribution   10.2724789118774     
 oo  1.214832242798645E-002
 vv  -68.5826404068240     
 vo  1.259555496824014E-002
  Correlated perturbed 1-el contribution to DBOC  -68.5578965294278       cm**-1
  SUM_I |dc_I/dx|^2 contribution to DBOC   34.3655382279689       cm**-1
 
 
  The total diagonal Born-Oppenheimer correction (DBOC) is:      0.0038884507 a.u.
  The total diagonal Born-Oppenheimer correction (DBOC) is:        853.416289 cm-1
 
 Total CC energy including DBOC  -113.193853112625     
 First-order density matrix is being calculated  (Symmetry block 3, perturbation   2)
 Calculation of the contributions of <pq||rs> to dI(i,j)/dx required   3.1 seconds.
 Calculation of the contributions of <pq||rs> to dI(a,b)/dx required  15.9 seconds.
 Calculation of the contributions of <pq||rs> to dI(i,a)/dx required   9.7 seconds.
 First-order Z-vector equations are solved for 1 perturbation.
 Convergence reached after  17 iterations.
        U*G(pq,rs) contribution is being calculated
             (Symmetry block 3, perturbation   2)

 CCSD contribution to force constants 

        0.0000000000        0.0000000000        0.0000000000
        0.0000000000        0.0000000000        0.0000000000
        0.0000000000        0.0000000000        0.0000000000
        0.0000000000        0.0000000000        0.0000000000
        0.0000000000        0.0000000000        0.0000000000
        0.0000000000        0.0000000000        0.0000000000
        0.0000000000        0.0000000000        0.0000000000
        0.0000000000        0.0000000000        0.0000000000
        0.0000000000        0.0000000000        0.0000000000
        0.0000000000        0.0000000000        0.0000000000
        0.0000000000        0.0000000000        0.0000000000
        0.0000000000      -14.0482689238       14.0482689238

 CCSD contribution to dipole derivatives 

        0.0000000000        0.0000000000        0.0000000000
        0.0000000000        0.0000000000        0.0000000000
        0.0000000000        0.0000000000        0.0000000000
        0.0000000000        0.0000000000       -0.0373875223
        0.0000000000        0.0000000000        0.0000000000
        0.0000000000        0.0000000000        0.0000000000
 @CHECKOUT-I, Total execution time (CPU/WALL):     1249.64/     508.40 seconds.
--executable xsdcc finished with status     0 in      508.60 seconds (walltime).
 --invoking executable--
/nfs/workspaces/public/cfour_mpi/bin/xanti
 @GETMEM-I,  Allocated    3814 MB of main memory.
 CCSD MO derivative gammas will be sorted to Mulliken order.
 @CHECKOUT-I, Total execution time (CPU/WALL):       11.93/      30.89 seconds.
--executable xanti finished with status     0 in       31.03 seconds (walltime).
 --invoking executable--
/nfs/workspaces/public/cfour_mpi/bin/xbcktrn
 @GETMEM-I,  Allocated    3814 MB of main memory.
 CCSD MO derivative gammas will be transformed to the AO basis.
 @CHECKOUT-I, Total execution time (CPU/WALL):       21.82/       3.19 seconds.
--executable xbcktrn finished with status     0 in        3.25 seconds (walltime).
 --invoking executable--
/nfs/workspaces/public/cfour_mpi/bin/xvdint
 @GETMEM-I,  Allocated    3814 MB of main memory.
 One- and two-electron integral derivatives are calculated
 for RHF-CC/MBPT hessians and dipole derivatives.
 Spherical gaussians are used.
  magnet F F
                    8722  records have been written to the Sort file.
  Total length of Sort file :             178609116  words.
 Evaluation of 2el integral derivatives

                      Two-electron integral gradient
                      ------------------------------

                         C #1 z     0.0000000000
                         O #2 z     0.0000000000


 C #1       0.0000000000           -1.7534134541            0.0000000000
 O #2       0.0000000000            1.7534134541            0.0000000000


 Evaluation of 2e integral derivatives required  365.60 seconds.
  contribution to Hessian
        0.0000000000        0.0000000000        0.0000000000
        0.0000000000       -1.7534134541        1.7534134541
 @CHECKOUT-I, Total execution time (CPU/WALL):      365.58/      74.52 seconds.
--executable xvdint finished with status     0 in       74.71 seconds (walltime).
 --invoking executable--
/nfs/workspaces/public/cfour_mpi/bin/xanti
 @GETMEM-I,  Allocated    3814 MB of main memory.
 CCSD MO gammas will be sorted to Mulliken order.
 @CHECKOUT-I, Total execution time (CPU/WALL):       17.13/      59.56 seconds.
--executable xanti finished with status     0 in       60.51 seconds (walltime).
 --invoking executable--
/nfs/workspaces/public/cfour_mpi/bin/xbcktrn
 @GETMEM-I,  Allocated    3814 MB of main memory.
 CCSD MO gammas will be transformed to the AO basis.
 @CHECKOUT-I, Total execution time (CPU/WALL):       57.19/      11.15 seconds.
--executable xbcktrn finished with status     0 in       11.22 seconds (walltime).
 --invoking executable--
/nfs/workspaces/public/cfour_mpi/bin/xvdint
 @GETMEM-I,  Allocated    3814 MB of main memory.
 One- and two-electron integral derivatives are calculated
 for RHF-CC/MBPT hessians and dipole derivatives.
 Spherical gaussians are used.
  magnet F F

                     Kinetic energy integral gradient
                     --------------------------------

                         C #1 z    -1.9706364566
                         O #2 z     1.9706364566


 C #1       0.0000000000            0.0000000000           -1.9706364566
 O #2       0.0000000000            0.0000000000            1.9706364566



                   Nuclear attraction integral gradient
                   ------------------------------------

                         C #1 z    27.8634712392
                         O #2 z   -27.8634712392


 C #1       0.0000000000            0.0000000000           27.8634712392
 O #2       0.0000000000            0.0000000000          -27.8634712392



                      Reorthonormalization gradient
                      -----------------------------

                         C #1 z     0.0000000000
                         O #2 z     0.0000000000


 C #1       0.0000000000            0.0000000000            0.0000000000
 O #2       0.0000000000            0.0000000000            0.0000000000



                     Kinetic energy integral Hessian
                     -------------------------------


           Symmetry 1

           C #1 z      O #2 z

 C #1 z    0.517817
 O #2 z   -0.517817    0.517817


           Symmetry 2

           C #1 x      O #2 x

 C #1 x   -3.613839
 O #2 x    3.613839   -3.613839


           Symmetry 3

           C #1 y      O #2 y

 C #1 y   -3.613839
 O #2 y    3.613839   -3.613839




           C #1 x      C #1 y      C #1 z      O #2 x      O #2 y      O #2 z

 C #1 x   -3.613839
 C #1 y    0.000000   -3.613839
 C #1 z    0.000000    0.000000    0.517817

 O #2 x    3.613839    0.000000    0.000000   -3.613839
 O #2 y    0.000000    3.613839    0.000000    0.000000   -3.613839
 O #2 z    0.000000    0.000000   -0.517817    0.000000    0.000000    0.517817




                   Nuclear attraction integral Hessian
                   -----------------------------------


           Symmetry 1

           C #1 z      O #2 z

 C #1 z  -12.400823
 O #2 z   12.400823  -12.400823


           Symmetry 2

           C #1 x      O #2 x

 C #1 x   32.207288
 O #2 x  -32.207288   32.207288


           Symmetry 3

           C #1 y      O #2 y

 C #1 y   32.207288
 O #2 y  -32.207288   32.207288




           C #1 x      C #1 y      C #1 z      O #2 x      O #2 y      O #2 z

 C #1 x   32.207288
 C #1 y    0.000000   32.207288
 C #1 z    0.000000    0.000000  -12.400823

 O #2 x  -32.207288    0.000000    0.000000   32.207288
 O #2 y    0.000000  -32.207288    0.000000    0.000000   32.207288
 O #2 z    0.000000    0.000000   12.400823    0.000000    0.000000  -12.400823




                Highest order reorthonormalization Hessian
                ------------------------------------------


           Symmetry 1

           C #1 z      O #2 z

 C #1 z    0.000000
 O #2 z    0.000000    0.000000


           Symmetry 2

           C #1 x      O #2 x

 C #1 x    0.000000
 O #2 x    0.000000    0.000000


           Symmetry 3

           C #1 y      O #2 y

 C #1 y    0.000000
 O #2 y    0.000000    0.000000




           C #1 x      C #1 y      C #1 z      O #2 x      O #2 y      O #2 z




                Electronic contributions to dipole moment
                -----------------------------------------

                               au             Debye

                    z     -0.98783174     -2.51081828

  Conversion factor used: 1 a.u. =   2.54174691 Debye 



   Electronic contributions to static part of dipole moment derivatives
   --------------------------------------------------------------------


                     Total dipole moment derivatives
                     -------------------------------


           Symmetry 1
                              Ez

               C #1 z    -5.82653398
               O #2 z    -8.17346602

           Symmetry 2
                              Ex

               C #1 x    -5.89687821
               O #2 x    -8.10312179

           Symmetry 3
                              Ey

               C #1 y    -5.89687821
               O #2 y    -8.10312179



                       Ex          Ey          Ez

      C #1    x   -5.896878    0.000000    0.000000
      C #1    y    0.000000   -5.896878    0.000000
      C #1    z    0.000000    0.000000   -5.826534

      O #2    x   -8.103122    0.000000    0.000000
      O #2    y    0.000000   -8.103122    0.000000
      O #2    z    0.000000    0.000000   -8.173466

 Evaluation of 1e integral derivatives required    1.63 seconds.
                    8815  records have been written to the Sort file.
  Total length of Sort file :             180513570  words.
 Evaluation of 2el integral derivatives

                      Two-electron integral gradient
                      ------------------------------

                         C #1 z   -11.8341378545
                         O #2 z    11.8341378545


 C #1       0.0000000000            0.0000000000          -11.8341378545
 O #2       0.0000000000            0.0000000000           11.8341378545


 Evaluation of 2e integral derivatives required  731.33 seconds.

                            Molecular gradient
                            ------------------

                         C #1 z    -0.4634528117
                         O #2 z     0.4634528117


 C #1       0.0000000000            0.0000000000           -0.4634528117
 O #2       0.0000000000            0.0000000000            0.4634528117


  Molecular gradient norm 0.655E+00

                            Molecular hessian
                            -----------------


           Symmetry 1

           C #1 z      O #2 z

 C #1 z  102.618787
 O #2 z -102.618787  102.618787


           Symmetry 2

           C #1 x      O #2 x

 C #1 x   14.847033
 O #2 x  -14.847033   14.847033


           Symmetry 3

           C #1 y      O #2 y

 C #1 y   14.847033
 O #2 y  -14.847033   14.847033




           C #1 x      C #1 y      C #1 z      O #2 x      O #2 y      O #2 z

 C #1 x   14.847033
 C #1 y    0.000000   14.847033
 C #1 z    0.000000    0.000000  102.618787

 O #2 x  -14.847033    0.000000    0.000000   14.847033
 O #2 y    0.000000  -14.847033    0.000000    0.000000   14.847033
 O #2 z    0.000000    0.000000 -102.618787    0.000000    0.000000  102.618787




                           Total dipole moment
                           -------------------

                               au             Debye

                    z     -0.26089782     -0.66313624

  Conversion factor used: 1 a.u. =   2.54174691 Debye 



                     Total dipole moment derivatives
                     -------------------------------


           Symmetry 1
                              Ez

               C #1 z     0.65186814
               O #2 z    -0.65186814

           Symmetry 2
                              Ex

               C #1 x    -0.14449132
               O #2 x     0.14449132

           Symmetry 3
                              Ey

               C #1 y    -0.14449132
               O #2 y     0.14449132



                       Ex          Ey          Ez

      C #1    x   -0.144491    0.000000    0.000000
      C #1    y    0.000000   -0.144491    0.000000
      C #1    z    0.000000    0.000000    0.651868

      O #2    x    0.144491    0.000000    0.000000
      O #2    y    0.000000    0.144491    0.000000
      O #2    z    0.000000    0.000000   -0.651868

 @CHECKOUT-I, Total execution time (CPU/WALL):      732.95/     128.06 seconds.
--executable xvdint finished with status     0 in      128.23 seconds (walltime).
 --invoking executable--
/nfs/workspaces/public/cfour_mpi/bin/xjoda
  @GTFLGS-I, Hessian will be transformed to curvilinear coordinates.
  @GTFLGS-I, Hessian will be transformed to curvilinear coordinates.
  igrd and ihes are                      0                     1
  gradient from JOBARC 
   0.000000000000000   0.000000000000000  -0.463452811701221
   0.000000000000000   0.000000000000000   0.463452811701221
 
  @PROJFCM-I, Projecting force constant matrix onto totally symmetric subspace.
  Largest difference between matrix elements of symmetrized
  and unsymmetrized FCM :    -0.2308802038E-09.
  read isotopes from ZMAT file 
 
  Summary of diagonal Born-Oppenheimer correction at the correlated level
  The total diagonal Born-Oppenheimer correction (DBOC) is:      0.0038884507 a.u.
  The total diagonal Born-Oppenheimer correction (DBOC) is:        853.416289 cm-1
  The total diagonal Born-Oppenheimer correction (DBOC) is:            10.209 kJ/mole
  hellooooooo 
  readis is  F
 
 @CHECKOUT-I, Total execution time (CPU/WALL):        0.03/       0.12 seconds.
--executable xjoda finished with status     0 in        0.17 seconds (walltime).
  The final electronic energy is      -113.193853112625135 a.u. 
  This computation required                         4109.18 seconds (walltime).
