 --invoking executable--
/nfs/workspaces/public/cfour_mpi/bin/xjoda


   *************************************************************************
         <<<     CCCCCC     CCCCCC   |||     CCCCCC     CCCCCC   >>>
       <<<      CCC        CCC       |||    CCC        CCC         >>>
      <<<      CCC        CCC        |||   CCC        CCC            >>>
    <<<        CCC        CCC        |||   CCC        CCC              >>>
      <<<      CCC        CCC        |||   CCC        CCC            >>>
       <<<      CCC        CCC       |||    CCC        CCC         >>>
         <<<     CCCCCC     CCCCCC   |||     CCCCCC     CCCCCC   >>>
   *************************************************************************

     ****************************************************************
     * CFOUR Coupled-Cluster techniques for Computational Chemistry *
     ****************************************************************
 

   Department of Chemistry                Institut fuer Physikalische Chemie
   University of Florida                  Universitaet Mainz
   Gainesville, FL 32611, USA             D-55099 Mainz, Germany

   Department of Chemistry                Fakultaet fuer Chemie und Biowiss.
   Johns Hopkins University               Karlsruher Institut fuer Technologie
   Baltimore, MD 21218, USA               D-76131 Karlsruhe, Germany

   Department of Chemistry                Department of Physical Chemistry
   Southern Methodist University          Eotvos Lorand University
   Dallas, TX 75275, USA                  H-1053 Budapest, Hungary

 
                       Version 2.1
 
                     vincent.theory.phys.ucl.ac.uk                     
                     Mon  3 Mar 08:21:00 GMT 2025                      
                     integer*8 version is running
 
********************************************************************************
*                          Input from ZMAT file                                *
********************************************************************************
Carbon Monoxide DBOC calculation                                                
C                                                                               
O 1 r                                                                           
                                                                                
r=1.5827586206896551                                                            
                                                                                
                                                                                
*CFOUR(CALC=CCSD,BASIS=AUG-PCVQZ,SCF_CONV=10                                    
CC_CONV=14,DBOC=ON,MEMORY=500000000                                             
ZFIELD=200)                                                                     
                                                                                
%isotopes                                                                       
12                                                                              
18                                                                              
********************************************************************************
  @GTFLGS-I, Hessian will be transformed to curvilinear coordinates.
    -------------------------------------------------------------------
                    CFOUR Control Parameters 
    -------------------------------------------------------------------
        External           Internal           Value            Units
          Name               Name
    -------------------------------------------------------------------
       ABCDTYPE             IABCDT         STANDARD    [  0]    ***   
       ANHARMONIC           IANHAR         OFF         [  0]    ***   
       ANH_ALGORIT          IANALG         STANDARD    [  0]    ***   
       ANH_DERIVAT          IANDER         SECOND      [  1]    ***   
       ANH_MODE             ANHMOD         VIBRATION   [  0]    ***   
       ANH_STEPSIZ          ICUBST             50000          x 10-6  
       ANH_SYMMETR          IANHSM         ABELIAN     [  0]    ***   
       AO_LADDERS           IAOLAD         SINGLEPASS  [  1]    ***   
       AV_SCF               IAVSCF         OFF         [  0]    ***   
       BASIS                IBASIS         AUG-PCVQZ   [ 52]    ***   
       BOTHVECTORS          BOTHVC         OFF         [  0]    ***   
       BOX_POTENT           IPIAB          OFF         [  0]    ***   
       BREIT                IBREIT         OFF         [  0]    ***   
       BRUCK_CONV           IBRTOL          10D-  4             ***   
       BRUECKNER            IBRKNR         OFF         [  0]    ***   
       BUFFERSIZE           IBUFFS              4096            ***   
       CACHE_RECS           ICHREC             10               ***   
       CALCLEVEL            ICLLVL         CCSD        [ 10]    ***   
       CCORBOPT             ICCORB         OFF         [  0]  x 0.01  
       CC_CONV              ICCCNV          10D- 14             ***   
       CC_EXPORDER          ICCEOR              5               ***   
       CC_EXTRAPOL          ICCEXT         DIIS        [  1]    ***   
       CC_GUESS             ICCGES         MP2         [  0]    ***   
       CC_MAXCYC            ICCCYC            100              cycles 
       CC_PROGRAM           ICCPRO         VCC         [  0]    ***   
       CHARGE               ICHRGE              0               ***   
       CHOLESKY             ICHOLE         OFF         [  0]    ***   
       CIS_CONV             ICISTL              5               ***   
       COMM_SIZE            IPSIZE            ***               ***   
       CONSTANT             ICONST         OLD         [  1]    ***   
       CONTINUUM            ICONTU         NONE        [  0]    ***   
       CONTRACTION          ICNTYP         GENERAL     [  1]    ***   
       COORDINATES          ICOORD         INTERNAL    [  0]    ***   
       CPHF_CONVER          ICPHFT          10D- 16             ***   
       CPHF_MAXCYC          ICPHFC             64              cycles 
       CUBIC                ICUBIC         OFF         [  0]    ***   
       CURVILINEAR          ICURVY         ON          [  1]    ***   
       DBOC                 IDBOC          ON          [  1]    ***   
       DCT                  IDCT           OFF         [  0]    ***   
       DERIV_LEV            IDRLVL         SECOND      [  2]    ***   
       DEVMEM_SIZE          IDVMEM          50000000           MByte  
       DIAG_MRCC            IEOMST          10D-  0             ***   
       DIFF_TYPE            IDIFTY         RELAXED     [  0]    ***   
       DIRECT               IDIRCT         OFF         [  0]    ***   
       DROPMO               IDRPMO      NONE         
       ECP                  IECP           OFF         [  0]    ***   
       EIGENVECTOR          IVEC                1               ***   
       EL_ANHARM            IELANH         OFF         [  0]    ***   
       EOMFOLLOW            IEOMSR         ENERGY      [  0]    ***   
       EOMIP                IEOMIP         OFF         [  0]    ***   
       EOMLEVEL             HBARFM         SAME        [  0]    ***   
       EOM_MRCC             IMRCCE         NEW         [  1]    ***   
       EOM_NONIT            EOMNON         OFF         [  0]    ***   
       EOM_NSING            IEOMSI          10D-  0             ***   
       EOM_NSTATES          IMRCCD         DAVIDSON    [  0]    ***   
       EOM_NTRIP            IEOMTR          10D-  0             ***   
       EOM_ORDER            IEXORD         ENERGY      [  0]    ***   
       EOM_PROPSTA          IEOMST              0               ***   
       ESTATE_CONV          IEXTOL          10D-  5             ***   
       ESTATE_DIAG          IEXDIG         ITERATIVE   [  0]    ***   
       ESTATE_LOCK          IESLOC         ON          [  1]    ***   
       ESTATE_MAXC          IEXMXC             40               ***   
       ESTATE_PROP          IEXPRP         OFF         [  0]    ***   
       EVAL_HESS            IRECAL              0            # of cyc.
       EXCITATION           IEXCIT              0               ***   
       EXCITE               IEXCIT         NONE        [  0]    ***   
       EXTERN_POT           IEXPOT         OFF         [  0]    ***   
       FCGRADNEW            IFCGNW         OFF         [  0]    ***   
       FC_FIELD             IFINFC              0             x 10-6  
       FD_CALTYPE           IFDCAL         GRADONLY    [  0]    ***   
       FD_PROJECT           IFDPRJ         OFF         [  1]    ***   
       FD_STEPSIZE          IDISFD              0            10-4 bohr
       FD_USEGROUP          IFDGRP         FULL        [  0]    ***   
       FILE_RECSIZ          IFLREC              4096           words  
       FINITE_PERT          IFIPER              0             x 10-6  
       FIXGEOM              IFIXGM         OFF         [  0]    ***   
       FOCK                 IFOCK          AO          [  1]    ***   
       FREQ_ALGORI          IVIALG         STANDARD    [  0]    ***   
       FROZEN_CORE          IFROCO         OFF         [  0]    ***   
       GAMMA_ABCD           IGABCD         STORE       [  0]    ***   
       GAMMA_ABCI           IGABCI         STORE       [  0]    ***   
       GENBAS_1             IGNBS1              0               ***   
       GENBAS_2             IGNBS2              0               ***   
       GENBAS_3             IGNBS3              0               ***   
       GENBAS_4             IGNBS4              0               ***   
       GEO_CONV             ICONTL              5              H/bohr 
       GEO_MAXCYC           IOPTCY             50               ***   
       GEO_MAXSTEP          IMXSTP            300            millibohr
       GEO_METHOD           INR            SINGLE_POINT[  5]    ***   
       GIAO                 IGIAO          OFF         [  1]    ***   
       GIMIC                IGIMIC         OFF         [  0]    ***   
       GRID                 IGRID          OFF         [  0]    ***   
       GRID_ALGO            IGALGO         SERIAL      [  0]    ***   
       GUESS                IGUESS         MOREAD      [  0]    ***   
       HBAR                 IHBAR          OFF         [  0]    ***   
       HESS_TYPE            IHESTP         SCF         [  0]    ***   
       HF2_FILE             IHF2Fl         USE         [  1]    ***   
       HFSTABILITY          ISTABL         OFF         [  0]    ***   
       INCORE               INCORE         OFF         [  0]    ***   
       INPUT_MRCC           IMRCC          ON          [  1]    ***   
       INTEGRALS            INTTYP         VMOL        [  1]    ***   
       JODA_PRINT           IJPRNT              0               ***   
       KEYWORD_OUT          IDMPKW         NO          [  0]    ***   
       LINDEP_TOL           ILINDP              8               ***   
       LINEQ_CONV           IZTACN          10D-  7           cycles  
       LINEQ_EXPOR          ILMAXD              5               ***   
       LINEQ_MAXCY          ILMAXC            100               ***   
       LINEQ_TYPE           ILTYPE         DIIS        [  1]    ***   
       LOCK_ORBOCC          ILOCOC         OFF         [  0]    ***   
       MEMORY_SIZE          IMEMSZ         500000000           words  
       MEM_UNIT             IMEMU          INTEGERWORDS[  0]    ***   
       MRCC                 IMRCCC         OFF         [  0]    ***   
       MULTIPLICTY          IMULTP              1               ***   
       NACOUPLING           IVCOUP         OFF         [  0]    ***   
       NEGEVAL              IDIE           ABORT       [  0]    ***   
       NEWNORM              INEWNO         OFF         [  0]    ***   
       NON-HF               INONHF         OFF         [  0]    ***   
       NTOP_TAMP            ITOPT2             15               ***   
       NUC_MODEL            INUCMO         POINT       [  0]    ***   
       OCCUPATION           IOCCU   ESTIMATED BY SCF 
       OPEN-SHELL           IOPEN          SPIN-ORBITAL[  0]    ***   
       OPTVIB               IOPTVB         OFF         [  0]    ***   
       ORBITALS             IORBTP         STANDARD    [  0]    ***   
       PARALLEL             IPARAL         ON          [  1]    ***   
       PARA_INT             IPINTS         ON          [  1]    ***   
       PARA_PRINT           IPPRIN              0               ***   
       PERT_ORB             IPTORB         STANDARD    [  0]    ***   
       POINTS               IGRDFD              0               ***   
       PRINT                IPRNT               0               ***   
       PROPS                IPROPS         OFF         [  0]    ***   
       PROP_INTEGR          IINTYP         INTERNAL    [  0]    ***   
       PSI                  IPSI           OFF         [  0]    ***   
       QC_ALG               IQCALG         FLM         [  0]    ***   
       QC_LINALG            IQCLIN         TRIDIAG     [  2]    ***   
       QC_MAXCYC            IQCMAX          10D-100           cycles  
       QC_MAXSCFCY          IQCMSC          10D- 15           cycles  
       QC_RTRUST            IQCRTR          10D-  0           x 10-3  
       QC_SKIPSCF           IQCSKI         OFF         [  0]    ***   
       QC_START             IQCSTA          10D-  1             ***   
       QRHFGUESS            IQGUES         OFF         [  0]    ***   
       QUARTIC              IQUART         OFF         [  0]    ***   
       RAMAN_INT            IRAMIN         OFF         [  0]    ***   
       RAMAN_ORB            IRAMRE         UNRELAXED   [  0]    ***   
       RDO                  IRDOFM         ON          [  1]    ***   
       REDUCE_REPR          REDREP         Ir          [  0]    ***   
       REFERENCE            IREFNC         RHF         [  0]    ***   
       RELATIVIST           IRELAT         OFF         [  0]    ***   
       RELAX_DENS           IRDENS         ON          [  1]    ***   
       RESET_FLAGS          IRESET         OFF         [  0]    ***   
       RESTART_CC           ICCRES         OFF         [  0]    ***   
       ROT_EVEC             ROTVEC              0               ***   
       SAVE_INTS            ISVINT         OFF         [  0]    ***   
       SCALE_ON             ISTCRT              0               ***   
       SCF_CONV             ISCFCV          10D- 10             ***   
       SCF_DAMPING          IDAMP               0             x 10-3  
       SCF_EXPORDE          IRPPOR              6               ***   
       SCF_EXPSTAR          IRPPLS              8               ***   
       SCF_EXTRAPO          IRPP           ON          [  1]    ***   
       SCF_MAXCYC           ISCFCY            150              cycles 
       SCF_NOSTOP           ISCFST         OFF         [  0]    ***   
       SCF_PRINT            ISCFPR              0               ***   
       SCF_PROG             ISCFPR         SCF         [  0]    ***   
       SD_FIELD             IFINSD              0             x 10-6  
       SOPERT               IPERSO         OFF         [  0]    ***   
       SPHERICAL            IDFGHI         ON          [  1]    ***   
       SPINORBIT            ISOCAL         OFF         [  0]    ***   
       SPINROTATIO          ISRCON         OFF         [  0]    ***   
       SPIN_FLIP            ISPFLP         OFF         [  0]    ***   
       SPIN_ORBIT           ISPORB         OFF         [  0]    ***   
       SPIN_SCAL            ISCSMP         OFF         [  0]    ***   
       STEEPSCALE           ISTPSC              1000          x 10-3  
       SUBGROUP             ISUBGP         DEFAULT     [  0]    ***   
       SUBGRPAXIS           ISBXYZ         X           [  0]    ***   
       SYMMETRY             ISYM           ON          [  0]    ***   
       SYM_CHECK            ISYMCK         OVERRIDE    [  1]    ***   
       T3_EXTRAPOL          IT3EXT         OFF         [  0]    ***   
       T4_EXTRAPOL          IT4EXP         OFF         [  0]    ***   
       TAMP_SUM             IEVERY              5               ***   
       TESTSUITE            ITESTS         OFF         [  0]    ***   
       THERMOCH             ITHERM         OFF         [  0]    ***   
       TOL_CHOLESK          ITOLCH          10D-  4             ***   
       TRANGRAD             IRESRM         OFF         [  0]    ***   
       TRANS_INV            ITRAIN         IGNORE      [  1]    ***   
       TREAT_PERT           ITREAT         SIMULTANEOUS[  0]    ***   
       TRIP_ALGORI          ITRALG         NORMAL      [  0]    ***   
       UIJ_THRESHO          IUIJTH              1               ***   
       UNITS                IUNITS         ANGSTROM    [  0]    ***   
       UNOS                 IUNOS          OFF         [  0]    ***   
       UPDATE_HESS          IHUPDT         ON          [  1]    ***   
       VIBPHASE             ISETPH         STANDARD    [  0]    ***   
       VIBRATION            IVIB           ANALYTIC    [  1]    ***   
       VIB_ALGORIT          IGEALG         STANDARD    [  0]    ***   
       VNATORB              IVNORB         OFF         [  0]    ***   
       VTRAN                IVTRAN         FULL/PARTIAL[  0]    ***   
       XFIELD               IXEFLD              0             x 10-6  
       XFORM_TOL            IXFTOL          10D- 11             ***   
       YFIELD               IYEFLD              0             x 10-6  
       ZFIELD               IZEFLD            200             x 10-6  
       ZSCALE_EXP           IZEXPS         OFF         [  0]    ***   
    -------------------------------------------------------------------
   2 entries found in Z-matrix 
   Job Title : Carbon Monoxide DBOC calculation                                                
   There are  1 unique internal coordinates.
   Of these,  0 will be optimized.
   User supplied Z-matrix: 
--------------------------------------------------------------------------------
       SYMBOL    BOND      LENGTH    ANGLE     ANGLE     DIHED     ANGLE
                  TO      (ANGST)    WRT      (DEG)      WRT      (DEG)
--------------------------------------------------------------------------------
        C    
        O          1         r    
                  *Initial values for internal coordinates* 
                      Name             Value
                        r               1.5827586207
--------------------------------------------------------------------------------
  read isotopes from ZMAT file 
   Rotational constants (in cm-1): 
          0.9346366083             0.9346366083
   Rotational constants (in MHz): 
      28019.7045403453         28019.7045403453
********************************************************************************
   The full molecular point group is CXv .
   The largest Abelian subgroup of the full molecular point group is C2v .
   The computational point group is C2v .
********************************************************************************
--------------------------------------------------------------------------------
   Analysis of internal coordinates specified by Z-matrix 
--------------------------------------------------------------------------------
   *The nuclear repulsion energy is   16.048246692810455 a.u.
   *There is   1 degree of freedom within the tot. symm. molecular subspace.
   *Z-matrix requests optimization of   0 coordinates.
   *The optimization is constrained.
   *The following   1 parameters can have non-zero 
    derivatives within the totally symmetric subspace:
             r    [ 1]
   *The following   0 parameters are to be optimized:

   *The following coordinates must be varied in an  unconstrained optimization.
             r    [ 1]
--------------------------------------------------------------------------------


 ----------------------------------------------------------------
         Coordinates used in calculation (QCOMP) 
 ----------------------------------------------------------------
 Z-matrix   Atomic            Coordinates (in bohr)
  Symbol    Number           X              Y              Z
 ----------------------------------------------------------------
     C         6        -0.00000000     0.00000000     1.79455508
     O         8         0.00000000     0.00000000    -1.19642586
 ----------------------------------------------------------------
 
   Interatomic distance matrix (Angstroms) 
 
                 C             O    
                [ 1]        [ 2]
  C    [ 1]     0.00000
  O    [ 2]     1.58276     0.00000
 rotcon2
   Rotational constants (in cm-1): 
          0.9346366083             0.0000000000
   Rotational constants (in MHz): 
      28019.7045403453             0.0000000000
  ECPDATA file not present.   Using default ECPDATA. 
  @GTFLGS-I, Hessian will be transformed to curvilinear coordinates.
  There are  218 basis functions.
 @CHECKOUT-I, Total execution time (CPU/WALL):        0.20/       0.29 seconds.
--executable xjoda finished with status     0 in        0.32 seconds (walltime).
 --invoking executable--
/nfs/workspaces/public/cfour_mpi/bin/xvmol
 SERIAL VERSION OF MOLECULE STARTED
********************************************************************************
                    INPUT FROM MOL FILE
********************************************************************************
INTGRL        1    0    1    0    0    0    0    0    0                         
         *** CFOUR Program System (Release V0.1) ***                            
Carbon Monoxide DBOC calculation                                                
    2    2 X  Y       0.10E-08              0    0                              
   9999.00      3.00                                                            
          6.00000000    1    5    1    1    1    1    1                         
C #1  -0.000000000000000   0.000000000000000   1.794555076839613                
   16    9                                                                      
   33980.0000000000       9.100000000000000E-005 -1.900000000000000E-005        
  0.000000000000000E+000  0.000000000000000E+000  0.000000000000000E+000        
  0.000000000000000E+000  0.000000000000000E+000  0.000000000000000E+000        
  0.000000000000000E+000                                                        
   5089.00000000000       7.040000000000000E-004 -1.510000000000000E-004        
  0.000000000000000E+000  0.000000000000000E+000  0.000000000000000E+000        
  0.000000000000000E+000  0.000000000000000E+000  0.000000000000000E+000        
  0.000000000000000E+000                                                        
   1157.00000000000       3.693000000000000E-003 -7.850000000000000E-004        
  0.000000000000000E+000  0.000000000000000E+000  0.000000000000000E+000        
  0.000000000000000E+000  0.000000000000000E+000  0.000000000000000E+000        
  0.000000000000000E+000                                                        
   326.600000000000       1.536000000000000E-002 -3.324000000000000E-003        
  0.000000000000000E+000  0.000000000000000E+000  0.000000000000000E+000        
  0.000000000000000E+000  0.000000000000000E+000  0.000000000000000E+000        
  0.000000000000000E+000                                                        
   106.100000000000       5.292900000000000E-002 -1.151200000000000E-002        
  0.000000000000000E+000  0.000000000000000E+000  0.000000000000000E+000        
  0.000000000000000E+000  0.000000000000000E+000  0.000000000000000E+000        
  0.000000000000000E+000                                                        
   38.1100000000000       0.147043000000000      -3.416000000000000E-002        
  0.000000000000000E+000  0.000000000000000E+000  0.000000000000000E+000        
  0.000000000000000E+000  0.000000000000000E+000  0.000000000000000E+000        
  0.000000000000000E+000                                                        
   14.7500000000000       0.305631000000000      -7.717300000000001E-002        
  0.000000000000000E+000  0.000000000000000E+000  0.000000000000000E+000        
  0.000000000000000E+000  0.000000000000000E+000  0.000000000000000E+000        
  0.000000000000000E+000                                                        
   6.03500000000000       0.399345000000000      -0.141493000000000             
  0.000000000000000E+000  0.000000000000000E+000  0.000000000000000E+000        
  0.000000000000000E+000  0.000000000000000E+000  0.000000000000000E+000        
  0.000000000000000E+000                                                        
   2.53000000000000       0.217051000000000      -0.118019000000000             
  0.000000000000000E+000  0.000000000000000E+000  0.000000000000000E+000        
  0.000000000000000E+000  0.000000000000000E+000  0.000000000000000E+000        
  0.000000000000000E+000                                                        
  0.735500000000000       1.589400000000000E-002  0.273806000000000             
   1.00000000000000       0.000000000000000E+000  0.000000000000000E+000        
  0.000000000000000E+000  0.000000000000000E+000  0.000000000000000E+000        
  0.000000000000000E+000                                                        
  0.290500000000000      -3.084000000000000E-003  0.586510000000000             
  0.000000000000000E+000   1.00000000000000       0.000000000000000E+000        
  0.000000000000000E+000  0.000000000000000E+000  0.000000000000000E+000        
  0.000000000000000E+000                                                        
  0.111100000000000       9.779999999999999E-004  0.285430000000000             
  0.000000000000000E+000  0.000000000000000E+000   1.00000000000000             
  0.000000000000000E+000  0.000000000000000E+000  0.000000000000000E+000        
  0.000000000000000E+000                                                        
   7.21600000000000       0.000000000000000E+000  0.000000000000000E+000        
  0.000000000000000E+000  0.000000000000000E+000  0.000000000000000E+000        
   1.00000000000000       0.000000000000000E+000  0.000000000000000E+000        
  0.000000000000000E+000                                                        
   19.5700000000000       0.000000000000000E+000  0.000000000000000E+000        
  0.000000000000000E+000  0.000000000000000E+000  0.000000000000000E+000        
  0.000000000000000E+000   1.00000000000000       0.000000000000000E+000        
  0.000000000000000E+000                                                        
   53.0730000000000       0.000000000000000E+000  0.000000000000000E+000        
  0.000000000000000E+000  0.000000000000000E+000  0.000000000000000E+000        
  0.000000000000000E+000  0.000000000000000E+000   1.00000000000000             
  0.000000000000000E+000                                                        
  4.145000000000000E-002  0.000000000000000E+000  0.000000000000000E+000        
  0.000000000000000E+000  0.000000000000000E+000  0.000000000000000E+000        
  0.000000000000000E+000  0.000000000000000E+000  0.000000000000000E+000        
   1.00000000000000                                                             
   10    8                                                                      
   34.5100000000000       5.378000000000000E-003  0.000000000000000E+000        
  0.000000000000000E+000  0.000000000000000E+000  0.000000000000000E+000        
  0.000000000000000E+000  0.000000000000000E+000  0.000000000000000E+000        
   7.91500000000000       3.613200000000000E-002  0.000000000000000E+000        
  0.000000000000000E+000  0.000000000000000E+000  0.000000000000000E+000        
  0.000000000000000E+000  0.000000000000000E+000  0.000000000000000E+000        
   2.36800000000000       0.142493000000000       0.000000000000000E+000        
  0.000000000000000E+000  0.000000000000000E+000  0.000000000000000E+000        
  0.000000000000000E+000  0.000000000000000E+000  0.000000000000000E+000        
  0.813200000000000       0.342150000000000        1.00000000000000             
  0.000000000000000E+000  0.000000000000000E+000  0.000000000000000E+000        
  0.000000000000000E+000  0.000000000000000E+000  0.000000000000000E+000        
  0.289000000000000       0.463864000000000       0.000000000000000E+000        
   1.00000000000000       0.000000000000000E+000  0.000000000000000E+000        
  0.000000000000000E+000  0.000000000000000E+000  0.000000000000000E+000        
  0.100700000000000       0.250028000000000       0.000000000000000E+000        
  0.000000000000000E+000   1.00000000000000       0.000000000000000E+000        
  0.000000000000000E+000  0.000000000000000E+000  0.000000000000000E+000        
   8.18200000000000       0.000000000000000E+000  0.000000000000000E+000        
  0.000000000000000E+000  0.000000000000000E+000   1.00000000000000             
  0.000000000000000E+000  0.000000000000000E+000  0.000000000000000E+000        
   24.1860000000000       0.000000000000000E+000  0.000000000000000E+000        
  0.000000000000000E+000  0.000000000000000E+000  0.000000000000000E+000        
   1.00000000000000       0.000000000000000E+000  0.000000000000000E+000        
   71.4940000000000       0.000000000000000E+000  0.000000000000000E+000        
  0.000000000000000E+000  0.000000000000000E+000  0.000000000000000E+000        
  0.000000000000000E+000   1.00000000000000       0.000000000000000E+000        
  3.218000000000000E-002  0.000000000000000E+000  0.000000000000000E+000        
  0.000000000000000E+000  0.000000000000000E+000  0.000000000000000E+000        
  0.000000000000000E+000  0.000000000000000E+000   1.00000000000000             
    6    6                                                                      
   1.84800000000000        1.00000000000000       0.000000000000000E+000        
  0.000000000000000E+000  0.000000000000000E+000  0.000000000000000E+000        
  0.000000000000000E+000                                                        
  0.649000000000000       0.000000000000000E+000   1.00000000000000             
  0.000000000000000E+000  0.000000000000000E+000  0.000000000000000E+000        
  0.000000000000000E+000                                                        
  0.228000000000000       0.000000000000000E+000  0.000000000000000E+000        
   1.00000000000000       0.000000000000000E+000  0.000000000000000E+000        
  0.000000000000000E+000                                                        
   8.65600000000000       0.000000000000000E+000  0.000000000000000E+000        
  0.000000000000000E+000   1.00000000000000       0.000000000000000E+000        
  0.000000000000000E+000                                                        
   33.2130000000000       0.000000000000000E+000  0.000000000000000E+000        
  0.000000000000000E+000  0.000000000000000E+000   1.00000000000000             
  0.000000000000000E+000                                                        
  7.660000000000000E-002  0.000000000000000E+000  0.000000000000000E+000        
  0.000000000000000E+000  0.000000000000000E+000  0.000000000000000E+000        
   1.00000000000000                                                             
    4    4                                                                      
   1.41900000000000        1.00000000000000       0.000000000000000E+000        
  0.000000000000000E+000  0.000000000000000E+000                                
  0.485000000000000       0.000000000000000E+000   1.00000000000000             
  0.000000000000000E+000  0.000000000000000E+000                                
   24.6940000000000       0.000000000000000E+000  0.000000000000000E+000        
   1.00000000000000       0.000000000000000E+000                                
  0.187000000000000       0.000000000000000E+000  0.000000000000000E+000        
  0.000000000000000E+000   1.00000000000000                                     
    2    2                                                                      
   1.01100000000000        1.00000000000000       0.000000000000000E+000        
  0.424000000000000       0.000000000000000E+000   1.00000000000000             
          8.00000000    1    5    1    1    1    1    1                         
O #2   0.000000000000000   0.000000000000000  -1.196425864492987                
   16    9                                                                      
   61420.0000000000       9.000000000000001E-005 -2.000000000000000E-005        
  0.000000000000000E+000  0.000000000000000E+000  0.000000000000000E+000        
  0.000000000000000E+000  0.000000000000000E+000  0.000000000000000E+000        
  0.000000000000000E+000                                                        
   9199.00000000000       6.980000000000001E-004 -1.590000000000000E-004        
  0.000000000000000E+000  0.000000000000000E+000  0.000000000000000E+000        
  0.000000000000000E+000  0.000000000000000E+000  0.000000000000000E+000        
  0.000000000000000E+000                                                        
   2091.00000000000       3.664000000000000E-003 -8.290000000000000E-004        
  0.000000000000000E+000  0.000000000000000E+000  0.000000000000000E+000        
  0.000000000000000E+000  0.000000000000000E+000  0.000000000000000E+000        
  0.000000000000000E+000                                                        
   590.900000000000       1.521800000000000E-002 -3.508000000000000E-003        
  0.000000000000000E+000  0.000000000000000E+000  0.000000000000000E+000        
  0.000000000000000E+000  0.000000000000000E+000  0.000000000000000E+000        
  0.000000000000000E+000                                                        
   192.300000000000       5.242300000000000E-002 -1.215600000000000E-002        
  0.000000000000000E+000  0.000000000000000E+000  0.000000000000000E+000        
  0.000000000000000E+000  0.000000000000000E+000  0.000000000000000E+000        
  0.000000000000000E+000                                                        
   69.3200000000000       0.145921000000000      -3.626100000000000E-002        
  0.000000000000000E+000  0.000000000000000E+000  0.000000000000000E+000        
  0.000000000000000E+000  0.000000000000000E+000  0.000000000000000E+000        
  0.000000000000000E+000                                                        
   26.9700000000000       0.305258000000000      -8.299200000000000E-002        
  0.000000000000000E+000  0.000000000000000E+000  0.000000000000000E+000        
  0.000000000000000E+000  0.000000000000000E+000  0.000000000000000E+000        
  0.000000000000000E+000                                                        
   11.1000000000000       0.398508000000000      -0.152090000000000             
  0.000000000000000E+000  0.000000000000000E+000  0.000000000000000E+000        
  0.000000000000000E+000  0.000000000000000E+000  0.000000000000000E+000        
  0.000000000000000E+000                                                        
   4.68200000000000       0.216980000000000      -0.115331000000000             
  0.000000000000000E+000  0.000000000000000E+000  0.000000000000000E+000        
  0.000000000000000E+000  0.000000000000000E+000  0.000000000000000E+000        
  0.000000000000000E+000                                                        
   1.42800000000000       1.759400000000000E-002  0.288979000000000             
   1.00000000000000       0.000000000000000E+000  0.000000000000000E+000        
  0.000000000000000E+000  0.000000000000000E+000  0.000000000000000E+000        
  0.000000000000000E+000                                                        
  0.554700000000000      -2.502000000000000E-003  0.586128000000000             
  0.000000000000000E+000   1.00000000000000       0.000000000000000E+000        
  0.000000000000000E+000  0.000000000000000E+000  0.000000000000000E+000        
  0.000000000000000E+000                                                        
  0.206700000000000       9.540000000000000E-004  0.277624000000000             
  0.000000000000000E+000  0.000000000000000E+000   1.00000000000000             
  0.000000000000000E+000  0.000000000000000E+000  0.000000000000000E+000        
  0.000000000000000E+000                                                        
   12.9740000000000       0.000000000000000E+000  0.000000000000000E+000        
  0.000000000000000E+000  0.000000000000000E+000  0.000000000000000E+000        
   1.00000000000000       0.000000000000000E+000  0.000000000000000E+000        
  0.000000000000000E+000                                                        
   34.9000000000000       0.000000000000000E+000  0.000000000000000E+000        
  0.000000000000000E+000  0.000000000000000E+000  0.000000000000000E+000        
  0.000000000000000E+000   1.00000000000000       0.000000000000000E+000        
  0.000000000000000E+000                                                        
   93.8810000000000       0.000000000000000E+000  0.000000000000000E+000        
  0.000000000000000E+000  0.000000000000000E+000  0.000000000000000E+000        
  0.000000000000000E+000  0.000000000000000E+000   1.00000000000000             
  0.000000000000000E+000                                                        
  6.959000000000000E-002  0.000000000000000E+000  0.000000000000000E+000        
  0.000000000000000E+000  0.000000000000000E+000  0.000000000000000E+000        
  0.000000000000000E+000  0.000000000000000E+000  0.000000000000000E+000        
   1.00000000000000                                                             
   10    8                                                                      
   63.4200000000000       6.044000000000000E-003  0.000000000000000E+000        
  0.000000000000000E+000  0.000000000000000E+000  0.000000000000000E+000        
  0.000000000000000E+000  0.000000000000000E+000  0.000000000000000E+000        
   14.6600000000000       4.179900000000000E-002  0.000000000000000E+000        
  0.000000000000000E+000  0.000000000000000E+000  0.000000000000000E+000        
  0.000000000000000E+000  0.000000000000000E+000  0.000000000000000E+000        
   4.45900000000000       0.161143000000000       0.000000000000000E+000        
  0.000000000000000E+000  0.000000000000000E+000  0.000000000000000E+000        
  0.000000000000000E+000  0.000000000000000E+000  0.000000000000000E+000        
   1.53100000000000       0.356731000000000        1.00000000000000             
  0.000000000000000E+000  0.000000000000000E+000  0.000000000000000E+000        
  0.000000000000000E+000  0.000000000000000E+000  0.000000000000000E+000        
  0.530200000000000       0.448309000000000       0.000000000000000E+000        
   1.00000000000000       0.000000000000000E+000  0.000000000000000E+000        
  0.000000000000000E+000  0.000000000000000E+000  0.000000000000000E+000        
  0.175000000000000       0.244940000000000       0.000000000000000E+000        
  0.000000000000000E+000   1.00000000000000       0.000000000000000E+000        
  0.000000000000000E+000  0.000000000000000E+000  0.000000000000000E+000        
   14.4750000000000       0.000000000000000E+000  0.000000000000000E+000        
  0.000000000000000E+000  0.000000000000000E+000   1.00000000000000             
  0.000000000000000E+000  0.000000000000000E+000  0.000000000000000E+000        
   42.7300000000000       0.000000000000000E+000  0.000000000000000E+000        
  0.000000000000000E+000  0.000000000000000E+000  0.000000000000000E+000        
   1.00000000000000       0.000000000000000E+000  0.000000000000000E+000        
   126.140000000000       0.000000000000000E+000  0.000000000000000E+000        
  0.000000000000000E+000  0.000000000000000E+000  0.000000000000000E+000        
  0.000000000000000E+000   1.00000000000000       0.000000000000000E+000        
  5.348000000000000E-002  0.000000000000000E+000  0.000000000000000E+000        
  0.000000000000000E+000  0.000000000000000E+000  0.000000000000000E+000        
  0.000000000000000E+000  0.000000000000000E+000   1.00000000000000             
    6    6                                                                      
   3.77500000000000        1.00000000000000       0.000000000000000E+000        
  0.000000000000000E+000  0.000000000000000E+000  0.000000000000000E+000        
  0.000000000000000E+000                                                        
   1.30000000000000       0.000000000000000E+000   1.00000000000000             
  0.000000000000000E+000  0.000000000000000E+000  0.000000000000000E+000        
  0.000000000000000E+000                                                        
  0.444000000000000       0.000000000000000E+000  0.000000000000000E+000        
   1.00000000000000       0.000000000000000E+000  0.000000000000000E+000        
  0.000000000000000E+000                                                        
   14.9270000000000       0.000000000000000E+000  0.000000000000000E+000        
  0.000000000000000E+000   1.00000000000000       0.000000000000000E+000        
  0.000000000000000E+000                                                        
   57.5440000000000       0.000000000000000E+000  0.000000000000000E+000        
  0.000000000000000E+000  0.000000000000000E+000   1.00000000000000             
  0.000000000000000E+000                                                        
  0.154000000000000       0.000000000000000E+000  0.000000000000000E+000        
  0.000000000000000E+000  0.000000000000000E+000  0.000000000000000E+000        
   1.00000000000000                                                             
    4    4                                                                      
   2.66600000000000        1.00000000000000       0.000000000000000E+000        
  0.000000000000000E+000  0.000000000000000E+000                                
  0.859000000000000       0.000000000000000E+000   1.00000000000000             
  0.000000000000000E+000  0.000000000000000E+000                                
   26.4830000000000       0.000000000000000E+000  0.000000000000000E+000        
   1.00000000000000       0.000000000000000E+000                                
  0.324000000000000       0.000000000000000E+000  0.000000000000000E+000        
  0.000000000000000E+000   1.00000000000000                                     
    2    2                                                                      
   1.84600000000000        1.00000000000000       0.000000000000000E+000        
  0.714000000000000       0.000000000000000E+000   1.00000000000000             
FINISH                                                                          
 
********************************************************************************
 ONE- AND TWO-ELECTRON INTEGRALS OVER SYMMETRY-ADAPTED AOS ARE CALCULATED.

  SPHERICAL HARMONICS ARE USED.
  
  INTEGRALS LESS THAN  0.10E-13 ARE NEGLECTED.

  NUCLEAR REPULSION ENERGY :   16.0482466928 A.U.
  @MOLECU-I, ONE ELECTRON INTEGRALS (CPU/WALL):        0.08/       0.10 SECONDS.
  @TWOEL-I,    4439008 INTEGRALS OF SYMMETRY TYPE  I I I I
  @TWOEL-I,   19151757 INTEGRALS OF SYMMETRY TYPE  I J I J
  @TWOEL-I,   10083472 INTEGRALS OF SYMMETRY TYPE  I I J J
  @TWOEL-I,   14156143 INTEGRALS OF SYMMETRY TYPE  I J K L
  @TWOEL-I, TOTAL NUMBER OF 2-E INTEGRALS   47830380.
  @MOLECU-I, TWO ELECTRON INTEGRALS (CPU/WALL):      239.30/      32.78 SECONDS.
 @CHECKOUT-I, Total execution time (CPU/WALL):      239.39/      32.93 seconds.

Running with 14 threads/proc

--executable xvmol finished with status     0 in       32.98 seconds (walltime).
 --invoking executable--
/nfs/workspaces/public/cfour_mpi/bin/xvmol2ja
 @GETMEM-I,  Allocated    3814 MB of main memory.
 @CHECKOUT-I, Total execution time (CPU/WALL):        0.25/       0.10 seconds.
--executable xvmol2ja finished with status     0 in        0.12 seconds (walltime).
 --invoking executable--
/nfs/workspaces/public/cfour_mpi/bin/xvprop
 @GETMEM-I,  Allocated    3814 MB of main memory.
   Property integrals will be calculated.
    --------------------------------------------------------------
                                   Property evaluated at 
    Property type                X             Y             Z
    --------------------------------------------------------------
    Dipole moment               ----          ----          ----  
    Quadrupole moment           ----          ----          ----  
    Octopole moment             ----          ----          ----  
    Relativisitic corr.         ----          ----          ----  
    Second moment            0.0000000     0.0000000     0.0000000
    Electron density         0.0000000     0.0000000     1.7945551
    Electron density         0.0000000     0.0000000    -1.1964259
    Field gradient           0.0000000     0.0000000     1.7945551
    Field gradient           0.0000000     0.0000000    -1.1964259
    Potential                0.0000000     0.0000000     1.7945551
    Potential                0.0000000     0.0000000    -1.1964259
    --------------------------------------------------------------
 @CHECKOUT-I, Total execution time (CPU/WALL):        1.48/       1.53 seconds.
--executable xvprop finished with status     0 in        1.56 seconds (walltime).
 --invoking executable--
/nfs/workspaces/public/cfour_mpi/bin/xvscf
  There are  218 functions in the AO basis.

  There are 4 irreducible representations.

       Irrep        # of functions
         1                 86
         2                 52
         3                 52
         4                 28


  Parameters for SCF calculation: 
        SCF reference function:  RHF  
  Maximum number of iterations:  150
     Full symmetry point group: CXv 
     Computational point group: C2v 
        Initial density matrix: MOREAD                 
     SCF convergence tolerance: 10**(-10)
  DIIS convergence acceleration:  ON
          Latest start for DIIS:   8
                     DIIS order:   6

  Memory information:    2523578 words required.
  Fock matrices are constructed from AO integral file.
 @GETMEM-I,  Allocated      19 MB of main memory.
  Initialization and symmetry analysis required      0.002 seconds.

  Adding electric field perturbation to one-electron Hamiltonian.
  Field direction     : Z
  Field strength      :  0.0002000 a.u.

  @INITGES-I, Occupancies from core Hamiltonian:

          Alpha population by irrep:   5    1    1    0
           Beta population by irrep:   5    1    1    0


 total no. of electrons in initial guess :  0.000000000000000E+000
  --------------------------------------------------------------------
  Iteration         Total Energy            Largest Density Difference
  --------------------------------------------------------------------
       0            16.048007508102039              0.0000000000D+00
   current occupation vector 
     5  1  1  0
     5  1  1  0
       1           -93.569970316911849              0.1754673921D+02
   current occupation vector 
     5  1  1  0
     5  1  1  0
       2           -98.038055664639785              0.1754672118D+02
   current occupation vector 
     5  1  1  0
     5  1  1  0
       3          -100.521336320818364              0.6614161091D+01
   current occupation vector 
     5  1  1  0
     5  1  1  0
       4           -95.456759017803847              0.6609085261D+01
   current occupation vector 
     5  1  1  0
     5  1  1  0
       5          -100.351449027846400              0.6942423728D+01
   current occupation vector 
     5  1  1  0
     5  1  1  0
       6           -95.203597335834274              0.6942955517D+01
   current occupation vector 
     5  1  1  0
     5  1  1  0
       7          -100.339574447568964              0.6961505482D+01
   current occupation vector 
     5  1  1  0
     5  1  1  0
       8           -95.195285578732950              0.6961545946D+01
   current occupation vector 
     5  1  1  0
     5  1  1  0
       9          -107.474554970257117              0.5799862685D+01
   current occupation vector 
     5  1  1  0
     5  1  1  0
      10          -110.458987313225208              0.1312170668D+01
   current occupation vector 
     5  1  1  0
     5  1  1  0
      11          -112.389764706762577              0.1092312115D+01
   current occupation vector 
     5  1  1  0
     5  1  1  0
      12          -112.527549861529508              0.4831488093D+00
   current occupation vector 
     5  1  1  0
     5  1  1  0
      13          -112.540213130581890              0.1265586789D+00
   current occupation vector 
     5  1  1  0
     5  1  1  0
      14          -112.544172550408206              0.7546572318D-01
   current occupation vector 
     5  1  1  0
     5  1  1  0
      15          -112.544450740286237              0.2068653248D-01
   current occupation vector 
     5  1  1  0
     5  1  1  0
      16          -112.544666989444124              0.2675757198D-01
   current occupation vector 
     5  1  1  0
     5  1  1  0
      17          -112.544745241493331              0.1875960111D-01
   current occupation vector 
     5  1  1  0
     5  1  1  0
      18          -112.544760364588541              0.1071173503D-01
   current occupation vector 
     5  1  1  0
     5  1  1  0
      19          -112.544760495636012              0.9359691476D-03
   current occupation vector 
     5  1  1  0
     5  1  1  0
      20          -112.544760496571939              0.4450107711D-04
   current occupation vector 
     5  1  1  0
     5  1  1  0
      21          -112.544760496641231              0.1106346281D-04
   current occupation vector 
     5  1  1  0
     5  1  1  0
      22          -112.544760496642510              0.1794010694D-05
   current occupation vector 
     5  1  1  0
     5  1  1  0
      23          -112.544760496643505              0.4557295870D-06
   current occupation vector 
     5  1  1  0
     5  1  1  0
      24          -112.544760496643022              0.1833714038D-06
   current occupation vector 
     5  1  1  0
     5  1  1  0
      25          -112.544760496641373              0.5161349304D-07
   current occupation vector 
     5  1  1  0
     5  1  1  0
      26          -112.544760496642539              0.1079920575D-07
   current occupation vector 
     5  1  1  0
     5  1  1  0
      27          -112.544760496642425              0.4644968854D-08
   current occupation vector 
     5  1  1  0
     5  1  1  0
      28          -112.544760496642709              0.7891420850D-09
   current occupation vector 
     5  1  1  0
     5  1  1  0

  SCF has converged.

 Density matrix saved to file den.dat
 total electron number:   14.0000000000002     
     E(SCF)=      -112.544760496642994              0.4748756943D-10

  Eigenvector printing suppressed.

 @PUTMOS-I, Writing converged MOs to NEWMOS. 
 @PUTMOS-I, Symmetry   1 Full Blocks 21 Partial Blocksize   2
 @PUTMOS-I, Symmetry   2 Full Blocks 13 Partial Blocksize   0
 @PUTMOS-I, Symmetry   3 Full Blocks 13 Partial Blocksize   0
 @PUTMOS-I, Symmetry   4 Full Blocks  7 Partial Blocksize   0
 @PUTFOCK-I, Writing converged Fock matrix to NEWFOCK. 
 @PUTFOCK-I, Symmetry   1 Full Blocks 21 Partial Blocksize   2
 @PUTFOCK-I, Symmetry   2 Full Blocks 13 Partial Blocksize   0
 @PUTFOCK-I, Symmetry   3 Full Blocks 13 Partial Blocksize   0
 @PUTFOCK-I, Symmetry   4 Full Blocks  7 Partial Blocksize   0


 
  ORBITAL EIGENVALUES (ALPHA)  (1H = 27.2113834 eV)

       MO #        E(hartree)               E(eV)           FULLSYM    COMPSYM
       ----   --------------------   --------------------   -------   ---------
    1     1         -20.6467403284        -561.8263670358     SG+        A1 (1)
    2     2         -11.5188414300        -313.4436104746     SG+        A1 (1)
    3     3          -1.2830394369         -34.9132780350     SG+        A1 (1)
    4     4          -0.8036745551         -21.8690964489     SG+        A1 (1)
    5     5          -0.5340504715         -14.5322521339     SG+        A1 (1)
    6   139          -0.5006028794         -13.6220968817      PI        B2 (3)
    7    87          -0.5006028794         -13.6220968817      PI        B1 (2)
  +++++++++++++++++++++++++++++++++++++++++++++++++++++++++++++++++++++++++++++
    8    88          -0.0034454282          -0.0937548688      PI        B1 (2)
    9   140          -0.0034454282          -0.0937548688      PI        B2 (3)
   10     6           0.0613531337           1.6695036446     SG+        A1 (1)
   11     7           0.0684171080           1.8617241567     SG+        A1 (1)
   12    89           0.0826594403           2.2492777220      PI        B1 (2)
   13   141           0.0826594403           2.2492777220      PI        B2 (3)
   14     8           0.1566757970           4.2633651820     SG+        A1 (1)
   15    90           0.1787735917           4.8646767444      PI        B1 (2)
   16   142           0.1787735917           4.8646767444      PI        B2 (3)
   17     9           0.2016675106           5.4876519498     SG+        A1 (1)
   18   191           0.2225892289           6.0569608488      DE        A2 (4)
   19    10           0.2225892289           6.0569608488      DE        A1 (1)
   20    91           0.2865062943           7.7962326218      PI        B1 (2)
   21   143           0.2865062943           7.7962326218      PI        B2 (3)
   22    11           0.3009006759           8.1879236579     SG+        A1 (1)
   23    12           0.3164049305           8.6098158747     SG+        A1 (1)
   24    92           0.4048475066          11.0164607220      PI        B1 (2)
   25   144           0.4048475066          11.0164607220      PI        B2 (3)
   26    13           0.4229334121          11.5086032286     SG+        A1 (1)
   27    14           0.5132093868          13.9651373894     SG+        A1 (1)
   28    15           0.5497552964          14.9596021476      DE        A1 (1)
   29   192           0.5497552964          14.9596021476      DE        A2 (4)
   30    93           0.6228622043          16.9489422464      PI        B1 (2)
   31   145           0.6228622043          16.9489422464      PI        B2 (3)
   32    16           0.7060466825          19.2125069746     SG+        A1 (1)
   33    94           0.7324112285          19.9299227455      PH        B1 (2)
   34   146           0.7324112285          19.9299227455      PH        B2 (3)
   35   193           0.7397721981          20.1302249111      DE        A2 (4)
   36    17           0.7397721981          20.1302249111      DE        A1 (1)
   37    95           0.7774871683          21.1565014239      PI        B1 (2)
   38   147           0.7774871683          21.1565014239      PI        B2 (3)
   39    18           0.8203197872          22.3220362398     SG+        A1 (1)
   40   194           0.8604470630          23.4139549275      DE        A2 (4)
   41    19           0.8604470630          23.4139549275      DE        A1 (1)
   42    20           0.8831225257          24.0309856348     SG+        A1 (1)
   43    96           0.8857314872          24.1019790875      PI        B1 (2)
   44   148           0.8857314872          24.1019790875      PI        B2 (3)
   45    97           1.0393033565          28.2808821015      PI        B1 (2)
   46   149           1.0393033565          28.2808821016      PI        B2 (3)
   47    21           1.1327668750          30.8241537395     SG+        A1 (1)
   48    22           1.3631939713          37.0943938019     SG+        A1 (1)
   49    98           1.4211592842          38.6717101537      PH        B1 (2)
   50   150           1.4211592842          38.6717101537      PH        B2 (3)
   51    99           1.4924485896          40.6115907755      PI        B1 (2)
   52   151           1.4924485896          40.6115907755      PI        B2 (3)
   53    23           1.5840605172          43.1044780625      DE        A1 (1)
   54   195           1.5840605172          43.1044780625      DE        A2 (4)
   55    24           1.5925038001          43.3342314692     SG+        A1 (1)
   56   100           1.6382051803          44.5778292503      PI        B1 (2)
   57   152           1.6382051803          44.5778292503      PI        B2 (3)
   58   196           1.6790541517          45.6893862704      DE        A2 (4)
   59    25           1.6790541517          45.6893862704      DE        A1 (1)
   60    26           1.9186971653          52.2104041934     SG+        A1 (1)
   61    27           1.9547727193          53.1920699250     SG+        A1 (1)
   62   197           2.0689099151          56.2979009195      PI        A2 (4)
   63    28           2.0689099151          56.2979009195      PI        A1 (1)
   64   101           2.0737707110          56.4301698994      PI        B1 (2)
   65   153           2.0737707110          56.4301698994      PI        B2 (3)
   66    29           2.1271881458          57.8837321980      DE        A1 (1)
   67   198           2.1271881458          57.8837321980      DE        A2 (4)
   68   154           2.2043012750          59.9820871234      PH        B2 (3)
   69   102           2.2043012750          59.9820871234      PH        B1 (2)
   70   155           2.2130874639          60.2211714781      PH        B2 (3)
   71   103           2.2130874639          60.2211714781      PH        B1 (2)
   72    30           2.2223105494          60.4721443941     SG+        A1 (1)
   73   156           2.2254573879          60.5577742223      PI        B2 (3)
   74   104           2.2254573879          60.5577742223      PI        B1 (2)
   75   199           2.2855747492          62.1936507908      DE        A2 (4)
   76    31           2.2855747492          62.1936507908      DE        A1 (1)
   77    32           2.4023993155          65.3726088536     SG+        A1 (1)
   78   105           2.5108094273          68.3225979694      PI        B1 (2)
   79   157           2.5108094273          68.3225979694      PI        B2 (3)
   80   106           2.5943804535          70.5966812048      PI        B1 (2)
   81   158           2.5943804535          70.5966812048      PI        B2 (3)
   82    33           2.6324762736          71.6333211710     SG+        A1 (1)
   83    34           2.6452241229          71.9802077882      DE        A1 (1)
   84   200           2.6452241229          71.9802077882      DE        A2 (4)
   85    35           2.9380232756          79.9476777909     SG+        A1 (1)
   86   107           3.3962839417          92.4175844737      PI        B1 (2)
   87   159           3.3962839417          92.4175844737      PI        B2 (3)
   88   201           3.7084470460         100.9119743872      PI        A2 (4)
   89    36           3.7084470460         100.9119743872      PI        A1 (1)
   90    37           3.8955192214         106.0024670746     SG+        A1 (1)
   91   108           3.9183433018         106.6235418779      PH        B1 (2)
   92   160           3.9183433018         106.6235418779      PH        B2 (3)
   93    38           4.1243486635         112.2292327578     SG+        A1 (1)
   94   109           4.1383147283         112.6092687025      PH        B1 (2)
   95   161           4.1383147283         112.6092687025      PH        B2 (3)
   96   110           4.1566574826         113.1084004204      PI        B1 (2)
   97   162           4.1566574826         113.1084004204      PI        B2 (3)
   98   202           4.1840467066         113.8536990968      DE        A2 (4)
   99    39           4.1840467066         113.8536990968      DE        A1 (1)
  100   203           4.2921233176         116.7946131962      DE        A2 (4)
  101    40           4.2921233176         116.7946131962      DE        A1 (1)
  102    41           4.4069575438         119.9194113516     SG+        A1 (1)
  103   111           4.5376057309         123.4745292619      PI        B1 (2)
  104   163           4.5376057309         123.4745292619      PI        B2 (3)
  105    42           4.6815326135         127.3909788467      DE        A1 (1)
  106   204           4.6815326135         127.3909788468      DE        A2 (4)
  107    43           4.7748837781         129.9311931769     SG+        A1 (1)
  108   112           5.1582960346         140.3643710882      PI        B1 (2)
  109   164           5.1582960346         140.3643710882      PI        B2 (3)
  110    44           5.2256808919         142.1980062767     SG+        A1 (1)
  111   113           5.3441026109         145.4204250733      PI        B1 (2)
  112   165           5.3441026109         145.4204250733      PI        B2 (3)
  113    45           5.8281604375         158.5923081809      PI        A1 (1)
  114   205           5.8281604375         158.5923081809      PI        A2 (4)
  115   166           5.9001615742         160.5515587176      PH        B2 (3)
  116   114           5.9001615742         160.5515587176      PH        B1 (2)
  117    46           6.0413150584         164.3925402949     SG+        A1 (1)
  118    47           6.1021392582         166.0476509156      DE        A1 (1)
  119   206           6.1021392582         166.0476509156      DE        A2 (4)
  120   115           6.1301510183         166.8098896579      PI        B1 (2)
  121   167           6.1301510183         166.8098896579      PI        B2 (3)
  122    48           6.1856736803         168.3207381009     SG+        A1 (1)
  123    49           6.3158806706         171.8638504351      DE        A1 (1)
  124   207           6.3158806706         171.8638504351      DE        A2 (4)
  125   168           6.3547878478         172.9225685517      PH        B2 (3)
  126   116           6.3547878478         172.9225685518      PH        B1 (2)
  127    50           6.4888625864         176.5709276689      DE        A1 (1)
  128   208           6.4888625864         176.5709276689      DE        A2 (4)
  129   117           6.7897276831         184.7578831652      PI        B1 (2)
  130   169           6.7897276831         184.7578831652      PI        B2 (3)
  131    51           7.0953567946         193.0744740986     SG+        A1 (1)
  132   118           7.2577122056         197.4923894322      PI        B1 (2)
  133   170           7.2577122056         197.4923894322      PI        B2 (3)
  134    52           7.8213777399         212.8305083968     SG+        A1 (1)
  135    53           9.5595021927         260.1272792792     SG+        A1 (1)
  136   171           9.7338675694         264.8720023956      PI        B2 (3)
  137   119           9.7338675694         264.8720023957      PI        B1 (2)
  138   209          10.6545984449         289.9263632574      PI        A2 (4)
  139    54          10.6545984449         289.9263632574      PI        A1 (1)
  140    55          10.6836697439         290.7174335205     SG+        A1 (1)
  141   172          10.7372661867         292.1758668751      PH        B2 (3)
  142   120          10.7372661867         292.1758668751      PH        B1 (2)
  143   210          10.9631811261         298.3233249060      DE        A2 (4)
  144    56          10.9631811261         298.3233249061      DE        A1 (1)
  145   121          10.9761458685         298.6761134828      PI        B1 (2)
  146   173          10.9761458685         298.6761134828      PI        B2 (3)
  147    57          11.1611885742         303.7113814927     SG+        A1 (1)
  148   122          11.8918168774         323.5927883725      PH        B1 (2)
  149   174          11.8918168774         323.5927883725      PH        B2 (3)
  150    58          11.9921722241         326.3235961878      DE        A1 (1)
  151   211          11.9921722241         326.3235961881      DE        A2 (4)
  152   123          12.3556541661         336.2144426728      PI        B1 (2)
  153   175          12.3556541661         336.2144426728      PI        B2 (3)
  154    59          12.5912561444         342.6254984342     SG+        A1 (1)
  155    60          12.7285360309         346.3610740567      DE        A1 (1)
  156   212          12.7285360309         346.3610740567      DE        A2 (4)
  157   124          13.1044851624         356.5911700128      PI        B1 (2)
  158   176          13.1044851624         356.5911700128      PI        B2 (3)
  159    61          13.5178226443         367.8386547080     SG+        A1 (1)
  160    62          17.3467384220         472.0287499416     SG+        A1 (1)
  161   125          18.7231091477         509.4817014589      PI        B1 (2)
  162   177          18.7231091477         509.4817014590      PI        B2 (3)
  163    63          19.6791913855         535.4980217927     SG+        A1 (1)
  164    64          26.2593948218         714.5544603475      DE        A1 (1)
  165   213          26.2593948218         714.5544603475      DE        A2 (4)
  166   178          26.5605100577         722.7482224797      PI        B2 (3)
  167   126          26.5605100577         722.7482224797      PI        B1 (2)
  168    65          27.0287039191         735.4884251465     SG+        A1 (1)
  169   179          33.4312217763         909.7097932848      PI        B2 (3)
  170   127          33.4312217763         909.7097932848      PI        B1 (2)
  171    66          34.3177692360         933.8339761148     SG+        A1 (1)
  172    67          35.5889758926         968.4252678277     SG+        A1 (1)
  173    68          47.0735991187        1280.9377536359      DE        A1 (1)
  174   214          47.0735991187        1280.9377536359      DE        A2 (4)
  175   180          47.2620258995        1286.0651070110      PI        B2 (3)
  176   128          47.2620258995        1286.0651070110      PI        B1 (2)
  177    69          47.5008326775        1292.5633698056     SG+        A1 (1)
  178    70          63.7675462933        1735.2031506644     SG+        A1 (1)
  179   129          66.3068520455        1804.3011730569      PI        B1 (2)
  180   181          66.3068520455        1804.3011730570      PI        B2 (3)
  181    71          67.0084822645        1823.3935019503     SG+        A1 (1)
  182   182          98.5103747797        2680.6035770076      PH        B2 (3)
  183   130          98.5103747797        2680.6035770076      PH        B1 (2)
  184   215          98.5240267095        2680.9750649040      DE        A2 (4)
  185    72          98.5240267095        2680.9750649040      DE        A1 (1)
  186   131          98.5371294404        2681.3316083369      PI        B1 (2)
  187   183          98.5371294404        2681.3316083369      PI        B2 (3)
  188    73          98.5475113350        2681.6141140521     SG+        A1 (1)
  189   184         103.3104806088        2811.2210970839      PH        B2 (3)
  190   132         103.3104806088        2811.2210970840      PH        B1 (2)
  191    74         103.3107719689        2811.2290253961      DE        A1 (1)
  192   216         103.3107719691        2811.2290254004      DE        A2 (4)
  193   133         103.3378450474        2811.9657213142      PI        B1 (2)
  194   185         103.3378450474        2811.9657213142      PI        B2 (3)
  195    75         103.3453682395        2812.1704377790     SG+        A1 (1)
  196    76         114.9620622123        3128.2767513131      DE        A1 (1)
  197   217         114.9620622123        3128.2767513132      DE        A2 (4)
  198   186         115.1082552424        3132.2548659053      PI        B2 (3)
  199   134         115.1082552424        3132.2548659053      PI        B1 (2)
  200    77         115.3296197315        3138.2784998896     SG+        A1 (1)
  201   135         116.7342154880        3176.4994935429      PI        B1 (2)
  202   187         116.7342154880        3176.4994935430      PI        B2 (3)
  203    78         117.4510649440        3196.0059589308     SG+        A1 (1)
  204    79         121.8647722749        3316.1090413269     SG+        A1 (1)
  205    80         198.5551978205        5402.9616139553      DE        A1 (1)
  206   218         198.5551978205        5402.9616139554      DE        A2 (4)
  207   188         198.6579809192        5405.7584842625      PI        B2 (3)
  208   136         198.6579809192        5405.7584842625      PI        B1 (2)
  209    81         198.7805651435        5409.0941705877     SG+        A1 (1)
  210    82         216.2920336331        5885.6054535550     SG+        A1 (1)
  211   189         224.7881601521        6116.7968096800      PI        B2 (3)
  212   137         224.7881601521        6116.7968096801      PI        B1 (2)
  213    83         225.3405343077        6131.8276746078     SG+        A1 (1)
  214   138         395.2622994243       10755.6339731990      PI        B1 (2)
  215   190         395.2622994243       10755.6339731991      PI        B2 (3)
  216    84         395.8274056696       10771.0112959034     SG+        A1 (1)
  217    85         508.5963847415       13839.6112210550     SG+        A1 (1)
  218    86         895.1071420291       24357.1036258312     SG+        A1 (1)


  VSCF finished.

 @CHECKOUT-I, Total execution time (CPU/WALL):       54.81/      13.38 seconds.
--executable xvscf finished with status     0 in       13.43 seconds (walltime).
 --invoking executable--
/nfs/workspaces/public/cfour_mpi/bin/xvtran
 @GETMEM-I,  Allocated    3814 MB of main memory.
  Full RHF integral transformation
  Transformation of IIII integrals :
  1 pass through the AO integral file was required.
     4439008 AO integrals were read.
     8617207 MO integrals were written to HF2.
  Transformation of IIJJ integrals :
  1 pass through the AO integral file was required.
    10083472 AO integrals were read.
    14365979 MO integrals were written to HF2.
  Transformation of IJIJ integrals :
  1 pass through the AO integral file was required.
    19151757 AO integrals were read.
    26698728 MO integrals were written to HF2.
  Transformation of IJKL integrals :
  1 pass through the AO integral file was required.
    14156143 AO integrals were read.
    18119460 MO integrals were written to HF2.
  Summary of active molecular orbitals: 
------------------------------------------------------------------------
 
  Index      Eigenvalue    Symmetry    Index      Eigenvalue    Symmetry
------------------------------------------------------------------------
     1       -20.6467403        1       110         4.1383147        2
     2       -11.5188414        1       111         4.1566575        2
     3        -1.2830394        1       112         4.5376057        2
     4        -0.8036746        1       113         5.1582960        2
     5        -0.5340505        1       114         5.3441026        2
     6        -0.5006029        2       115         5.9001616        2
     7        -0.5006029        3       116         6.1301510        2
     8         0.0613531        1       117         6.3547878        2
     9         0.0684171        1       118         6.7897277        2
    10         0.1566758        1       119         7.2577122        2
    11         0.2016675        1       120         9.7338676        2
    12         0.2225892        1       121        10.7372662        2
    13         0.3009007        1       122        10.9761459        2
    14         0.3164049        1       123        11.8918169        2
    15         0.4229334        1       124        12.3556542        2
    16         0.5132094        1       125        13.1044852        2
    17         0.5497553        1       126        18.7231091        2
    18         0.7060467        1       127        26.5605101        2
    19         0.7397722        1       128        33.4312218        2
    20         0.8203198        1       129        47.2620259        2
    21         0.8604471        1       130        66.3068520        2
    22         0.8831225        1       131        98.5103748        2
    23         1.1327669        1       132        98.5371294        2
    24         1.3631940        1       133       103.3104806        2
    25         1.5840605        1       134       103.3378450        2
    26         1.5925038        1       135       115.1082552        2
    27         1.6790542        1       136       116.7342155        2
    28         1.9186972        1       137       198.6579809        2
    29         1.9547727        1       138       224.7881602        2
    30         2.0689099        1       139       395.2622994        2
    31         2.1271881        1       140        -0.0034454        3
    32         2.2223105        1       141         0.0826594        3
    33         2.2855747        1       142         0.1787736        3
    34         2.4023993        1       143         0.2865063        3
    35         2.6324763        1       144         0.4048475        3
    36         2.6452241        1       145         0.6228622        3
    37         2.9380233        1       146         0.7324112        3
    38         3.7084470        1       147         0.7774872        3
    39         3.8955192        1       148         0.8857315        3
    40         4.1243487        1       149         1.0393034        3
    41         4.1840467        1       150         1.4211593        3
    42         4.2921233        1       151         1.4924486        3
    43         4.4069575        1       152         1.6382052        3
    44         4.6815326        1       153         2.0737707        3
    45         4.7748838        1       154         2.2043013        3
    46         5.2256809        1       155         2.2130875        3
    47         5.8281604        1       156         2.2254574        3
    48         6.0413151        1       157         2.5108094        3
    49         6.1021393        1       158         2.5943805        3
    50         6.1856737        1       159         3.3962839        3
    51         6.3158807        1       160         3.9183433        3
    52         6.4888626        1       161         4.1383147        3
    53         7.0953568        1       162         4.1566575        3
    54         7.8213777        1       163         4.5376057        3
    55         9.5595022        1       164         5.1582960        3
    56        10.6545984        1       165         5.3441026        3
    57        10.6836697        1       166         5.9001616        3
    58        10.9631811        1       167         6.1301510        3
    59        11.1611886        1       168         6.3547878        3
    60        11.9921722        1       169         6.7897277        3
    61        12.5912561        1       170         7.2577122        3
    62        12.7285360        1       171         9.7338676        3
    63        13.5178226        1       172        10.7372662        3
    64        17.3467384        1       173        10.9761459        3
    65        19.6791914        1       174        11.8918169        3
    66        26.2593948        1       175        12.3556542        3
    67        27.0287039        1       176        13.1044852        3
    68        34.3177692        1       177        18.7231091        3
    69        35.5889759        1       178        26.5605101        3
    70        47.0735991        1       179        33.4312218        3
    71        47.5008327        1       180        47.2620259        3
    72        63.7675463        1       181        66.3068520        3
    73        67.0084823        1       182        98.5103748        3
    74        98.5240267        1       183        98.5371294        3
    75        98.5475113        1       184       103.3104806        3
    76       103.3107720        1       185       103.3378450        3
    77       103.3453682        1       186       115.1082552        3
    78       114.9620622        1       187       116.7342155        3
    79       115.3296197        1       188       198.6579809        3
    80       117.4510649        1       189       224.7881602        3
    81       121.8647723        1       190       395.2622994        3
    82       198.5551978        1       191         0.2225892        4
    83       198.7805651        1       192         0.5497553        4
    84       216.2920336        1       193         0.7397722        4
    85       225.3405343        1       194         0.8604471        4
    86       395.8274057        1       195         1.5840605        4
    87       508.5963847        1       196         1.6790542        4
    88       895.1071420        1       197         2.0689099        4
    89        -0.0034454        2       198         2.1271881        4
    90         0.0826594        2       199         2.2855747        4
    91         0.1787736        2       200         2.6452241        4
    92         0.2865063        2       201         3.7084470        4
    93         0.4048475        2       202         4.1840467        4
    94         0.6228622        2       203         4.2921233        4
    95         0.7324112        2       204         4.6815326        4
    96         0.7774872        2       205         5.8281604        4
    97         0.8857315        2       206         6.1021393        4
    98         1.0393034        2       207         6.3158807        4
    99         1.4211593        2       208         6.4888626        4
   100         1.4924486        2       209        10.6545984        4
   101         1.6382052        2       210        10.9631811        4
   102         2.0737707        2       211        11.9921722        4
   103         2.2043013        2       212        12.7285360        4
   104         2.2130875        2       213        26.2593948        4
   105         2.2254574        2       214        47.0735991        4
   106         2.5108094        2       215        98.5240267        4
   107         2.5943805        2       216       103.3107720        4
   108         3.3962839        2       217       114.9620622        4
   109         3.9183433        2       218       198.5551978        4
------------------------------------------------------------------------
  -20.6467403283790       -11.5188414299665       -1.28303943690730     
 -0.803674555146301      -0.534050471462743      -0.500602879369790     
 -0.500602879369818       6.135313372492484E-002  6.841710799158655E-002
  0.156675797012215       0.201667510584596       0.222589228918903     
  0.300900675925809       0.316404930543687       0.422933412071857     
  0.513209386826684       0.549755296441236       0.706046682456357     
  0.739772198096162       0.820319787189391       0.860447063027917     
  0.883122525655028        1.13276687503800        1.36319397130930     
   1.58406051720506        1.59250380005386        1.67905415166713     
   1.91869716529600        1.95477271931001        2.06890991508676     
   2.12718814575358        2.22231054941830        2.28557474923620     
   2.40239931548826        2.63247627355109        2.64522412293642     
   2.93802327561550        3.70844704599700        3.89551922136483     
   4.12434866349977        4.18404670659883        4.29212331763234     
   4.40695754378871        4.68153261354290        4.77488377812100     
   5.22568089194180        5.82816043747547        6.04131505841971     
   6.10213925821908        6.18567368026166        6.31588067055327     
   6.48886258641611        7.09535679463373        7.82137773990440     
   9.55950219271880        10.6545984449074        10.6836697439106     
   10.9631811261037        11.1611885742174        11.9921722240643     
[...]
 Convergence information after    13 iterations: 
 Largest element of residual vector : -0.19159602E-05.
 Largest element of DIIS residual   : -0.15033850E-05.
 Convergence information after    14 iterations: 
 Largest element of residual vector : -0.98710675E-06.
 Largest element of DIIS residual   : -0.86054516E-06.
 Convergence information after    15 iterations: 
 Largest element of residual vector : -0.42140306E-06.
 Largest element of DIIS residual   : -0.28711002E-06.
 Convergence information after    16 iterations: 
 Largest element of residual vector : -0.27433867E-06.
 Largest element of DIIS residual   : -0.14021034E-06.
 Convergence information after    17 iterations: 
 Largest element of residual vector : -0.12982969E-06.
 Largest element of DIIS residual   : -0.82761117E-07.
 Perturbed amplitude equations converged in    17 iterations.
  Dominant contributions to perturbed wavefunction:
    7    7  140   45  -0.2350308216 ABAB
    7    7   45  140  -0.2350308216 ABAB
    7    7  140   22  -0.2166386606 ABAB
    7    7   22  140  -0.2166386606 ABAB
    7    7  140   39  -0.2048506666 ABAB
    7    7   39  140  -0.2048506666 ABAB
    7    7  140   28   0.1910641646 ABAB
    7    7   28  140   0.1910641646 ABAB
    7    0   35    0   0.1747864415 AA  
    7    7  140   29  -0.1602945751 ABAB
    7    7   29  140  -0.1602945751 ABAB
    7    7  140   57  -0.1601836625 ABAB
    7    7   57  140  -0.1601836625 ABAB
    7    6   45   89  -0.1467737793 ABAB
    6    7   89   45  -0.1467737793 ABAB
    7    0   39    0   0.1439231617 AA  
    7    7  140   32  -0.1430644955 ABAB
    7    7   32  140  -0.1430644955 ABAB
    7    0   45    0   0.1430204513 AA  
    7    7  140   54   0.1412319116 ABAB
  norm of converged amps    1.67423798758517     
 Starting iterative solution of the perturbed Lambda equations.
 The DIIS procedure is used to accelerate convergence.
 Convergence criterion is 10**(-7).
 Maximum number of iterations is 100.
 Convergence information after     1 iterations: 
 Largest element of residual vector :  0.78027069E-01.
 Largest element of DIIS residual   :  0.78027069E-01.
 Convergence information after     2 iterations: 
 Largest element of residual vector :  0.16304077E-01.
 Largest element of DIIS residual   :  0.12396712E-01.
 Convergence information after     3 iterations: 
 Largest element of residual vector : -0.65283748E-02.
 Largest element of DIIS residual   : -0.62419687E-02.
 Convergence information after     4 iterations: 
 Largest element of residual vector : -0.37939957E-02.
 Largest element of DIIS residual   : -0.34374304E-02.
 Convergence information after     5 iterations: 
 Largest element of residual vector : -0.32651622E-02.
 Largest element of DIIS residual   : -0.25922902E-02.
 Convergence information after     6 iterations: 
 Largest element of residual vector : -0.16886322E-02.
 Largest element of DIIS residual   : -0.75049939E-03.
 Convergence information after     7 iterations: 
 Largest element of residual vector : -0.78487050E-03.
 Largest element of DIIS residual   : -0.38216921E-03.
 Convergence information after     8 iterations: 
 Largest element of residual vector : -0.27223880E-03.
 Largest element of DIIS residual   : -0.17468302E-03.
 Convergence information after     9 iterations: 
 Largest element of residual vector : -0.11703847E-03.
 Largest element of DIIS residual   : -0.59687392E-04.
 Convergence information after    10 iterations: 
 Largest element of residual vector : -0.53224852E-04.
 Largest element of DIIS residual   : -0.24454705E-04.
 Convergence information after    11 iterations: 
 Largest element of residual vector : -0.11590845E-04.
 Largest element of DIIS residual   : -0.56518196E-05.
 Convergence information after    12 iterations: 
 Largest element of residual vector : -0.34687613E-05.
 Largest element of DIIS residual   : -0.21719830E-05.
 Convergence information after    13 iterations: 
 Largest element of residual vector : -0.16948085E-05.
 Largest element of DIIS residual   : -0.14719712E-05.
 Convergence information after    14 iterations: 
 Largest element of residual vector : -0.70110245E-06.
 Largest element of DIIS residual   : -0.55626439E-06.
 Convergence information after    15 iterations: 
 Largest element of residual vector : -0.41153387E-06.
 Largest element of DIIS residual   : -0.19684147E-06.
 Convergence information after    16 iterations: 
 Largest element of residual vector : -0.16900087E-06.
 Largest element of DIIS residual   : -0.94871734E-07.
 Perturbed Lambda equations converged in    16 iterations.
  Dominant contributions to perturbed wavefunction:
    7    7  140   45  -0.1941079115 ABAB
    7    7   45  140  -0.1941079115 ABAB
    7    7  140   22  -0.1783815387 ABAB
    7    7   22  140  -0.1783815387 ABAB
    7    7  140   39  -0.1673545696 ABAB
    7    7   39  140  -0.1673545696 ABAB
    7    7  140   28   0.1600753745 ABAB
    7    7   28  140   0.1600753745 ABAB
    7    7  140   57  -0.1312242677 ABAB
    7    7   57  140  -0.1312242677 ABAB
    7    7  140   29  -0.1290744293 ABAB
    7    7   29  140  -0.1290744293 ABAB
    7    6   45   89  -0.1199405497 ABAB
    6    7   89   45  -0.1199405497 ABAB
    7    7  140   32  -0.1183619891 ABAB
    7    7   32  140  -0.1183619891 ABAB
    7    7  140   54   0.1167573846 ABAB
    7    7   54  140   0.1167573846 ABAB
    7    6   22   89  -0.1093718405 ABAB
    6    7   89   22  -0.1093718405 ABAB
        The DBOC first-order density matrix is being calculated 
             (Symmetry block 3, perturbation   2)
 term   2.95048544603180     
 final tnorm  0.797569221227860     
  norm contr. I: |<0|L dT/dx|0>|^2   0.000000000000000E+000
  norm contr. II: <0|[nabla(1+L)e-T][nabla e^T]|0>   2.95048544603180     
  total norm contribution   2.95048544603180     
 oo  8.153517944834552E-003
 vv  -19.6168768873764     
 vo  5.921739380278547E-002
  Correlated perturbed 1-el contribution to DBOC  -19.5495059756288       cm**-1
  SUM_I |dc_I/dx|^2 contribution to DBOC   9.87055035658779       cm**-1
 
 
  The total diagonal Born-Oppenheimer correction (DBOC) is:      0.0038699477 a.u.
  The total diagonal Born-Oppenheimer correction (DBOC) is:        849.355346 cm-1
 
 Total CC energy including DBOC  -113.086900598448     
 First-order density matrix is being calculated  (Symmetry block 3, perturbation   2)
 Calculation of the contributions of <pq||rs> to dI(i,j)/dx required   3.1 seconds.
 Calculation of the contributions of <pq||rs> to dI(a,b)/dx required  16.6 seconds.
 Calculation of the contributions of <pq||rs> to dI(i,a)/dx required   9.9 seconds.
 First-order Z-vector equations are solved for 1 perturbation.
 Convergence reached after  19 iterations.
        U*G(pq,rs) contribution is being calculated
             (Symmetry block 3, perturbation   2)

 CCSD contribution to force constants 

        0.0000000000        0.0000000000        0.0000000000
        0.0000000000        0.0000000000        0.0000000000
        0.0000000000        0.0000000000        0.0000000000
        0.0000000000        0.0000000000        0.0000000000
        0.0000000000        0.0000000000        0.0000000000
        0.0000000000        0.0000000000        0.0000000000
        0.0000000000        0.0000000000        0.0000000000
        0.0000000000        0.0000000000        0.0000000000
        0.0000000000        0.0000000000        0.0000000000
        0.0000000000        0.0000000000        0.0000000000
        0.0000000000        0.0000000000        0.0000000000
        0.0000000000       -4.2193005915        4.2193005915

 CCSD contribution to dipole derivatives 

        0.0000000000        0.0000000000        0.0000000000
        0.0000000000        0.0000000000        0.0000000000
        0.0000000000        0.0000000000        0.0000000000
        0.0000000000        0.0000000000       -0.0573277341
        0.0000000000        0.0000000000        0.0000000000
        0.0000000000        0.0000000000        0.0000000000
 @CHECKOUT-I, Total execution time (CPU/WALL):     1226.53/     454.89 seconds.
--executable xsdcc finished with status     0 in      455.19 seconds (walltime).
 --invoking executable--
/nfs/workspaces/public/cfour_mpi/bin/xanti
 @GETMEM-I,  Allocated    3814 MB of main memory.
 CCSD MO derivative gammas will be sorted to Mulliken order.
 @CHECKOUT-I, Total execution time (CPU/WALL):       13.32/      21.67 seconds.
--executable xanti finished with status     0 in       21.81 seconds (walltime).
 --invoking executable--
/nfs/workspaces/public/cfour_mpi/bin/xbcktrn
 @GETMEM-I,  Allocated    3814 MB of main memory.
 CCSD MO derivative gammas will be transformed to the AO basis.
 @CHECKOUT-I, Total execution time (CPU/WALL):       33.32/      16.61 seconds.
--executable xbcktrn finished with status     0 in       16.68 seconds (walltime).
 --invoking executable--
/nfs/workspaces/public/cfour_mpi/bin/xvdint
 @GETMEM-I,  Allocated    3814 MB of main memory.
 One- and two-electron integral derivatives are calculated
 for RHF-CC/MBPT hessians and dipole derivatives.
 Spherical gaussians are used.
  magnet F F
                    8722  records have been written to the Sort file.
  Total length of Sort file :             178609116  words.
 Evaluation of 2el integral derivatives

                      Two-electron integral gradient
                      ------------------------------

                         C #1 z     0.0000000000
                         O #2 z     0.0000000000


 C #1       0.0000000000            0.0685158206            0.0000000000
 O #2       0.0000000000           -0.0685158206            0.0000000000


 Evaluation of 2e integral derivatives required  349.05 seconds.
  contribution to Hessian
        0.0000000000        0.0000000000        0.0000000000
        0.0000000000        0.0685158206       -0.0685158206
 @CHECKOUT-I, Total execution time (CPU/WALL):      349.03/      70.74 seconds.
--executable xvdint finished with status     0 in       70.99 seconds (walltime).
 --invoking executable--
/nfs/workspaces/public/cfour_mpi/bin/xanti
 @GETMEM-I,  Allocated    3814 MB of main memory.
 CCSD MO gammas will be sorted to Mulliken order.
 @CHECKOUT-I, Total execution time (CPU/WALL):       16.77/      67.37 seconds.
--executable xanti finished with status     0 in       67.55 seconds (walltime).
 --invoking executable--
/nfs/workspaces/public/cfour_mpi/bin/xbcktrn
 @GETMEM-I,  Allocated    3814 MB of main memory.
 CCSD MO gammas will be transformed to the AO basis.
 @CHECKOUT-I, Total execution time (CPU/WALL):       52.16/      11.72 seconds.
--executable xbcktrn finished with status     0 in       11.80 seconds (walltime).
 --invoking executable--
/nfs/workspaces/public/cfour_mpi/bin/xvdint
 @GETMEM-I,  Allocated    3814 MB of main memory.
 One- and two-electron integral derivatives are calculated
 for RHF-CC/MBPT hessians and dipole derivatives.
 Spherical gaussians are used.
  magnet F F

                     Kinetic energy integral gradient
                     --------------------------------

                         C #1 z    -0.5479080853
                         O #2 z     0.5479080853


 C #1       0.0000000000            0.0000000000           -0.5479080853
 O #2       0.0000000000            0.0000000000            0.5479080853



                   Nuclear attraction integral gradient
                   ------------------------------------

                         C #1 z    13.9136022605
                         O #2 z   -13.9136022605


 C #1       0.0000000000            0.0000000000           13.9136022605
 O #2       0.0000000000            0.0000000000          -13.9136022605



                      Reorthonormalization gradient
                      -----------------------------

                         C #1 z     0.0000000000
                         O #2 z     0.0000000000


 C #1       0.0000000000            0.0000000000            0.0000000000
 O #2       0.0000000000            0.0000000000            0.0000000000



                     Kinetic energy integral Hessian
                     -------------------------------


           Symmetry 1

           C #1 z      O #2 z

 C #1 z    0.575317
 O #2 z   -0.575317    0.575317


           Symmetry 2

           C #1 x      O #2 x

 C #1 x   -0.423384
 O #2 x    0.423384   -0.423384


           Symmetry 3

           C #1 y      O #2 y

 C #1 y   -0.423384
 O #2 y    0.423384   -0.423384




           C #1 x      C #1 y      C #1 z      O #2 x      O #2 y      O #2 z

 C #1 x   -0.423384
 C #1 y    0.000000   -0.423384
 C #1 z    0.000000    0.000000    0.575317

 O #2 x    0.423384    0.000000    0.000000   -0.423384
 O #2 y    0.000000    0.423384    0.000000    0.000000   -0.423384
 O #2 z    0.000000    0.000000   -0.575317    0.000000    0.000000    0.575317




                   Nuclear attraction integral Hessian
                   -----------------------------------


           Symmetry 1

           C #1 z      O #2 z

 C #1 z   -8.474239
 O #2 z    8.474239   -8.474239


           Symmetry 2

           C #1 x      O #2 x

 C #1 x    7.531740
 O #2 x   -7.531740    7.531740


           Symmetry 3

           C #1 y      O #2 y

 C #1 y    7.531740
 O #2 y   -7.531740    7.531740




           C #1 x      C #1 y      C #1 z      O #2 x      O #2 y      O #2 z

 C #1 x    7.531740
 C #1 y    0.000000    7.531740
 C #1 z    0.000000    0.000000   -8.474239

 O #2 x   -7.531740    0.000000    0.000000    7.531740
 O #2 y    0.000000   -7.531740    0.000000    0.000000    7.531740
 O #2 z    0.000000    0.000000    8.474239    0.000000    0.000000   -8.474239




                Highest order reorthonormalization Hessian
                ------------------------------------------


           Symmetry 1

           C #1 z      O #2 z

 C #1 z    0.000000
 O #2 z    0.000000    0.000000


           Symmetry 2

           C #1 x      O #2 x

 C #1 x    0.000000
 O #2 x    0.000000    0.000000


           Symmetry 3

           C #1 y      O #2 y

 C #1 y    0.000000
 O #2 y    0.000000    0.000000




           C #1 x      C #1 y      C #1 z      O #2 x      O #2 y      O #2 z




                Electronic contributions to dipole moment
                -----------------------------------------

                               au             Debye

                    z     -0.72300970     -1.83770768

  Conversion factor used: 1 a.u. =   2.54174691 Debye 



   Electronic contributions to static part of dipole moment derivatives
   --------------------------------------------------------------------


                     Total dipole moment derivatives
                     -------------------------------


           Symmetry 1
                              Ez

               C #1 z    -5.61844286
               O #2 z    -8.38155714

           Symmetry 2
                              Ex

               C #1 x    -5.67178098
               O #2 x    -8.32821902

           Symmetry 3
                              Ey

               C #1 y    -5.67178098
               O #2 y    -8.32821902



                       Ex          Ey          Ez

      C #1    x   -5.671781    0.000000    0.000000
      C #1    y    0.000000   -5.671781    0.000000
      C #1    z    0.000000    0.000000   -5.618443

      O #2    x   -8.328219    0.000000    0.000000
      O #2    y    0.000000   -8.328219    0.000000
      O #2    z    0.000000    0.000000   -8.381557

 Evaluation of 1e integral derivatives required    1.70 seconds.
                    8815  records have been written to the Sort file.
  Total length of Sort file :             180513570  words.
 Evaluation of 2el integral derivatives

                      Two-electron integral gradient
                      ------------------------------

                         C #1 z    -7.4069088896
                         O #2 z     7.4069088896


 C #1       0.0000000000            0.0000000000           -7.4069088896
 O #2       0.0000000000            0.0000000000            7.4069088896


 Evaluation of 2e integral derivatives required  720.89 seconds.

                            Molecular gradient
                            ------------------

                         C #1 z     0.5932389958
                         O #2 z    -0.5932389958


 C #1       0.0000000000            0.0000000000            0.5932389958
 O #2       0.0000000000            0.0000000000           -0.5932389958


  Molecular gradient norm 0.839E+00

                            Molecular hessian
                            -----------------


           Symmetry 1

           C #1 z      O #2 z

 C #1 z   16.546325
 O #2 z  -16.546325   16.546325


           Symmetry 2

           C #1 x      O #2 x

 C #1 x    4.404903
 O #2 x   -4.404903    4.404903


           Symmetry 3

           C #1 y      O #2 y

 C #1 y    4.404903
 O #2 y   -4.404903    4.404903




           C #1 x      C #1 y      C #1 z      O #2 x      O #2 y      O #2 z

 C #1 x    4.404903
 C #1 y    0.000000    4.404903
 C #1 z    0.000000    0.000000   16.546325

 O #2 x   -4.404903    0.000000    0.000000    4.404903
 O #2 y    0.000000   -4.404903    0.000000    0.000000    4.404903
 O #2 z    0.000000    0.000000  -16.546325    0.000000    0.000000   16.546325




                           Total dipole moment
                           -------------------

                               au             Debye

                    z      0.47291384      1.20202729

  Conversion factor used: 1 a.u. =   2.54174691 Debye 



                     Total dipole moment derivatives
                     -------------------------------


           Symmetry 1
                              Ez

               C #1 z     0.59086679
               O #2 z    -0.59086679

           Symmetry 2
                              Ex

               C #1 x     0.16467346
               O #2 x    -0.16467346

           Symmetry 3
                              Ey

               C #1 y     0.16467346
               O #2 y    -0.16467346



                       Ex          Ey          Ez

      C #1    x    0.164673    0.000000    0.000000
      C #1    y    0.000000    0.164673    0.000000
      C #1    z    0.000000    0.000000    0.590867

      O #2    x   -0.164673    0.000000    0.000000
      O #2    y    0.000000   -0.164673    0.000000
      O #2    z    0.000000    0.000000   -0.590867

 @CHECKOUT-I, Total execution time (CPU/WALL):      722.57/     133.74 seconds.
--executable xvdint finished with status     0 in      133.96 seconds (walltime).
 --invoking executable--
/nfs/workspaces/public/cfour_mpi/bin/xjoda
  @GTFLGS-I, Hessian will be transformed to curvilinear coordinates.
  @GTFLGS-I, Hessian will be transformed to curvilinear coordinates.
  igrd and ihes are                      0                     1
  gradient from JOBARC 
   0.000000000000000   0.000000000000000   0.593238995765192
   0.000000000000000   0.000000000000000  -0.593238995765192
 
  @PROJFCM-I, Projecting force constant matrix onto totally symmetric subspace.
  Largest difference between matrix elements of symmetrized
  and unsymmetrized FCM :    -0.9370282328E-12.
  read isotopes from ZMAT file 
 
  Summary of diagonal Born-Oppenheimer correction at the correlated level
  The total diagonal Born-Oppenheimer correction (DBOC) is:      0.0038699477 a.u.
  The total diagonal Born-Oppenheimer correction (DBOC) is:        849.355346 cm-1
  The total diagonal Born-Oppenheimer correction (DBOC) is:            10.161 kJ/mole
  hellooooooo 
  readis is  F
 
 @CHECKOUT-I, Total execution time (CPU/WALL):        0.01/       0.08 seconds.
--executable xjoda finished with status     0 in        0.13 seconds (walltime).
  The final electronic energy is      -113.086900598447542 a.u. 
  This computation required                         4385.06 seconds (walltime).
